
.Version 8.2.2 of ABINIT 
.(MPI version, prepared for a x86_64_linux_gnu5.4 computer) 

.Copyright (C) 1998-2017 ABINIT group . 
 ABINIT comes with ABSOLUTELY NO WARRANTY.
 It is free software, and you are welcome to redistribute it
 under certain conditions (GNU General Public License,
 see ~abinit/COPYING or http://www.gnu.org/copyleft/gpl.txt).

 ABINIT is a project of the Universite Catholique de Louvain,
 Corning Inc. and other collaborators, see ~abinit/doc/developers/contributors.txt .
 Please read ~abinit/doc/users/acknowledgments.html for suggested
 acknowledgments of the ABINIT effort.
 For more information, see http://www.abinit.org .

.Starting date : Sun 26 Mar 2017.
- ( at 17h20 )
  
- input  file    -> fbandgraphene.in
- output file    -> fbandgraphene.out
- root for input  files -> fbandgraphene_xi
- root for output files -> fbandgraphene_xo

- inpspheads : Reading pseudopotential header in XML form from C.GGA_PBE-JTH.xml

 DATASET    1 : the unit cell is not primitive
================================================================================
 Values of the parameters that define the memory need for DATASET  1.
     intxc =       0    ionmov =       0      iscf =      17    lmnmax =       8
     lnmax =       4     mgfft =      60  mpssoang =       2    mqgrid =    4791
     natom =       8  nloc_mem =       2    nspden =       1   nspinor =       1
    nsppol =       1      nsym =      96    n1xccc =       1    ntypat =       1
    occopt =       1   xclevel =       2
-    mband =          17        mffmem =           1         mkmem =           4
       mpw =        4508          nfft =       96000          nkpt =          24
Pmy_natom=         2
 PAW method is used; the additional fine FFT grid is defined by:
   mgfftf=        96    nfftf =    345600
================================================================================
P This job should need less than                     102.171 Mbytes of memory.
  Rough estimation (10% accuracy) of disk space for files :
_ WF disk file :     28.067 Mbytes ; DEN or POT disk file :      2.639 Mbytes.
================================================================================


 DATASET    2 : the unit cell is not primitive
================================================================================
 Values of the parameters that define the memory need for DATASET  2.
     intxc =       0    ionmov =       0      iscf =      -2    lmnmax =       8
     lnmax =       4     mgfft =      60  mpssoang =       2    mqgrid =    4791
     natom =       8  nloc_mem =       2    nspden =       1   nspinor =       1
    nsppol =       1      nsym =      96    n1xccc =       1    ntypat =       1
    occopt =       1   xclevel =       2
-    mband =          20        mffmem =           1         mkmem =          62
       mpw =        4502          nfft =       96000          nkpt =         369
Pmy_natom=         2
 PAW method is used; the additional fine FFT grid is defined by:
   mgfftf=        96    nfftf =    345600
================================================================================
P This job should need less than                     171.516 Mbytes of memory.
  Rough estimation (10% accuracy) of disk space for files :
_ WF disk file :    506.972 Mbytes ; DEN or POT disk file :      2.639 Mbytes.
================================================================================

--------------------------------------------------------------------------------
------------- Echo of variables that govern the present computation ------------
--------------------------------------------------------------------------------
-
- outvars: echo of selected default values                                      
-   iomode0 =  0 , fftalg0 =112 , wfoptalg0 = 10
-
- outvars: echo of global parameters not present in the input file              
-  max_nthreads =    0
-
 -outvars: echo values of preprocessed input variables --------
            acell      9.3255114082E+00  9.3255114082E+00  1.5048253987E+01 Bohr
              amu      1.20110000E+01
           diemac      1.20000000E+01
             ecut      1.90000000E+01 Hartree
           enunit1          0
           enunit2          1
-          fftalg         112
           getden1          0
           getden2         -1
           iatsph1       1    2    3    4    5    6    7    8
           iatsph2       1    2    3    4    5    6    7    8
             iscf1         17
             iscf2         -2
           istwfk1       4    0    0    0    0    0    0    5    0    0
                         0    0    0    0    0    0    0    0    0    0
                         0    0    0    0
           istwfk2       2    0    0    0    0    0    0    0    0    0
                         0    0    0    0    0    0    0    0    0    0
                         0    0    0    0    0    0    0    0    0    0
                         0    0    0    0    0    0    0    0    0    0
                         0    0    0    0    0    0    0    0    0    0
                       outvar_i_n : Printing only first  50 k-points.
              ixc     -101130
           jdtset        1    2
              kpt1     0.00000000E+00  0.00000000E+00  5.00000000E-01
                       7.14285714E-02  0.00000000E+00  5.00000000E-01
                       1.42857143E-01  0.00000000E+00  5.00000000E-01
                       2.14285714E-01  0.00000000E+00  5.00000000E-01
                       2.85714286E-01  0.00000000E+00  5.00000000E-01
                       3.57142857E-01  0.00000000E+00  5.00000000E-01
                       4.28571429E-01  0.00000000E+00  5.00000000E-01
                       5.00000000E-01  0.00000000E+00  5.00000000E-01
                       1.42857143E-01  7.14285714E-02  5.00000000E-01
                       2.14285714E-01  7.14285714E-02  5.00000000E-01
                       2.85714286E-01  7.14285714E-02  5.00000000E-01
                       3.57142857E-01  7.14285714E-02  5.00000000E-01
                       4.28571429E-01  7.14285714E-02  5.00000000E-01
                       5.00000000E-01  7.14285714E-02  5.00000000E-01
                       2.85714286E-01  1.42857143E-01  5.00000000E-01
                       3.57142857E-01  1.42857143E-01  5.00000000E-01
                       4.28571429E-01  1.42857143E-01  5.00000000E-01
                       5.00000000E-01  1.42857143E-01  5.00000000E-01
                      -4.28571429E-01  1.42857143E-01  5.00000000E-01
                       4.28571429E-01  2.14285714E-01  5.00000000E-01
                       5.00000000E-01  2.14285714E-01  5.00000000E-01
                      -4.28571429E-01  2.14285714E-01  5.00000000E-01
                      -4.28571429E-01  2.85714286E-01  5.00000000E-01
                      -3.57142857E-01  2.85714286E-01  5.00000000E-01
              kpt2     0.00000000E+00  0.00000000E+00  0.00000000E+00
                       2.89855072E-03  5.79710145E-03  0.00000000E+00
                       5.79710145E-03  1.15942029E-02  0.00000000E+00
                       8.69565217E-03  1.73913043E-02  0.00000000E+00
                       1.15942029E-02  2.31884058E-02  0.00000000E+00
                       1.44927536E-02  2.89855072E-02  0.00000000E+00
                       1.73913043E-02  3.47826087E-02  0.00000000E+00
                       2.02898551E-02  4.05797101E-02  0.00000000E+00
                       2.31884058E-02  4.63768116E-02  0.00000000E+00
                       2.60869565E-02  5.21739130E-02  0.00000000E+00
                       2.89855072E-02  5.79710145E-02  0.00000000E+00
                       3.18840580E-02  6.37681159E-02  0.00000000E+00
                       3.47826087E-02  6.95652174E-02  0.00000000E+00
                       3.76811594E-02  7.53623188E-02  0.00000000E+00
                       4.05797101E-02  8.11594203E-02  0.00000000E+00
                       4.34782609E-02  8.69565217E-02  0.00000000E+00
                       4.63768116E-02  9.27536232E-02  0.00000000E+00
                       4.92753623E-02  9.85507246E-02  0.00000000E+00
                       5.21739130E-02  1.04347826E-01  0.00000000E+00
                       5.50724638E-02  1.10144928E-01  0.00000000E+00
                       5.79710145E-02  1.15942029E-01  0.00000000E+00
                       6.08695652E-02  1.21739130E-01  0.00000000E+00
                       6.37681159E-02  1.27536232E-01  0.00000000E+00
                       6.66666667E-02  1.33333333E-01  0.00000000E+00
                       6.95652174E-02  1.39130435E-01  0.00000000E+00
                       7.24637681E-02  1.44927536E-01  0.00000000E+00
                       7.53623188E-02  1.50724638E-01  0.00000000E+00
                       7.82608696E-02  1.56521739E-01  0.00000000E+00
                       8.11594203E-02  1.62318841E-01  0.00000000E+00
                       8.40579710E-02  1.68115942E-01  0.00000000E+00
                       8.69565217E-02  1.73913043E-01  0.00000000E+00
                       8.98550725E-02  1.79710145E-01  0.00000000E+00
                       9.27536232E-02  1.85507246E-01  0.00000000E+00
                       9.56521739E-02  1.91304348E-01  0.00000000E+00
                       9.85507246E-02  1.97101449E-01  0.00000000E+00
                       1.01449275E-01  2.02898551E-01  0.00000000E+00
                       1.04347826E-01  2.08695652E-01  0.00000000E+00
                       1.07246377E-01  2.14492754E-01  0.00000000E+00
                       1.10144928E-01  2.20289855E-01  0.00000000E+00
                       1.13043478E-01  2.26086957E-01  0.00000000E+00
                       1.15942029E-01  2.31884058E-01  0.00000000E+00
                       1.18840580E-01  2.37681159E-01  0.00000000E+00
                       1.21739130E-01  2.43478261E-01  0.00000000E+00
                       1.24637681E-01  2.49275362E-01  0.00000000E+00
                       1.27536232E-01  2.55072464E-01  0.00000000E+00
                       1.30434783E-01  2.60869565E-01  0.00000000E+00
                       1.33333333E-01  2.66666667E-01  0.00000000E+00
                       1.36231884E-01  2.72463768E-01  0.00000000E+00
                       1.39130435E-01  2.78260870E-01  0.00000000E+00
                       1.42028986E-01  2.84057971E-01  0.00000000E+00
                       outvar_i_n : Printing only first  50 k-points.
           kptopt1          1
           kptopt2         -3
         kptrlatt       14    0    0      0   14    0      0    0    1
          kptrlen1     1.30557160E+02
          kptrlen2     3.00000000E+01
P           mkmem1          4
P           mkmem2         62
            natom           8
           natsph1       8
           natsph2       8
            nband1         17
            nband2         20
           nbdbuf1          0
           nbdbuf2          2
           ndtset           2
            ngfft          40      40      60
          ngfftdg          60      60      96
             nkpt1         24
             nkpt2        369
            nstep         100
             nsym          96
           ntypat           1
              occ      2.000000  2.000000  2.000000  2.000000  2.000000  2.000000
                       2.000000  2.000000  2.000000  2.000000  2.000000  2.000000
                       2.000000  2.000000  2.000000  2.000000  0.000000
        pawecutdg      5.00000000E+01 Hartree
        pawfatbnd           1
          pawovlp     -1.0000000000E+00
            rprim      5.0000000000E-01  8.6602540500E-01  0.0000000000E+00
                      -5.0000000000E-01  8.6602540500E-01  0.0000000000E+00
                       0.0000000000E+00  0.0000000000E+00  1.0000000000E+00
           shiftk1     0.00000000E+00  0.00000000E+00  5.00000000E-01
           shiftk2     5.00000000E-01  5.00000000E-01  5.00000000E-01
           symrel      1  0  0   0  1  0   0  0  1       1  0  0   0  1  0   0  0  1
                       1  0  0   0  1  0   0  0  1       1  0  0   0  1  0   0  0  1
                      -1  0  0   0 -1  0   0  0 -1      -1  0  0   0 -1  0   0  0 -1
                      -1  0  0   0 -1  0   0  0 -1      -1  0  0   0 -1  0   0  0 -1
                      -1  1  0   0  1  0   0  0  1      -1  1  0   0  1  0   0  0  1
                      -1  1  0   0  1  0   0  0  1      -1  1  0   0  1  0   0  0  1
                       1 -1  0   0 -1  0   0  0 -1       1 -1  0   0 -1  0   0  0 -1
                       1 -1  0   0 -1  0   0  0 -1       1 -1  0   0 -1  0   0  0 -1
                       0  1  0  -1  1  0   0  0  1       0  1  0  -1  1  0   0  0  1
                       0  1  0  -1  1  0   0  0  1       0  1  0  -1  1  0   0  0  1
                       0 -1  0   1 -1  0   0  0 -1       0 -1  0   1 -1  0   0  0 -1
                       0 -1  0   1 -1  0   0  0 -1       0 -1  0   1 -1  0   0  0 -1
                      -1  0  0  -1  1  0   0  0  1      -1  0  0  -1  1  0   0  0  1
                      -1  0  0  -1  1  0   0  0  1      -1  0  0  -1  1  0   0  0  1
                       1  0  0   1 -1  0   0  0 -1       1  0  0   1 -1  0   0  0 -1
                       1  0  0   1 -1  0   0  0 -1       1  0  0   1 -1  0   0  0 -1
                      -1  1  0  -1  0  0   0  0  1      -1  1  0  -1  0  0   0  0  1
                      -1  1  0  -1  0  0   0  0  1      -1  1  0  -1  0  0   0  0  1
                       1 -1  0   1  0  0   0  0 -1       1 -1  0   1  0  0   0  0 -1
                       1 -1  0   1  0  0   0  0 -1       1 -1  0   1  0  0   0  0 -1
                       0 -1  0  -1  0  0   0  0  1       0 -1  0  -1  0  0   0  0  1
                       0 -1  0  -1  0  0   0  0  1       0 -1  0  -1  0  0   0  0  1
                       0  1  0   1  0  0   0  0 -1       0  1  0   1  0  0   0  0 -1
                       0  1  0   1  0  0   0  0 -1       0  1  0   1  0  0   0  0 -1
                      -1  0  0   0 -1  0   0  0  1      -1  0  0   0 -1  0   0  0  1
                      -1  0  0   0 -1  0   0  0  1      -1  0  0   0 -1  0   0  0  1
                       1  0  0   0  1  0   0  0 -1       1  0  0   0  1  0   0  0 -1
                       1  0  0   0  1  0   0  0 -1       1  0  0   0  1  0   0  0 -1
                       1 -1  0   0 -1  0   0  0  1       1 -1  0   0 -1  0   0  0  1
                       1 -1  0   0 -1  0   0  0  1       1 -1  0   0 -1  0   0  0  1
                      -1  1  0   0  1  0   0  0 -1      -1  1  0   0  1  0   0  0 -1
                      -1  1  0   0  1  0   0  0 -1      -1  1  0   0  1  0   0  0 -1
                       0 -1  0   1 -1  0   0  0  1       0 -1  0   1 -1  0   0  0  1
                       0 -1  0   1 -1  0   0  0  1       0 -1  0   1 -1  0   0  0  1
                       0  1  0  -1  1  0   0  0 -1       0  1  0  -1  1  0   0  0 -1
                       0  1  0  -1  1  0   0  0 -1       0  1  0  -1  1  0   0  0 -1
                       1  0  0   1 -1  0   0  0  1       1  0  0   1 -1  0   0  0  1
                       1  0  0   1 -1  0   0  0  1       1  0  0   1 -1  0   0  0  1
                      -1  0  0  -1  1  0   0  0 -1      -1  0  0  -1  1  0   0  0 -1
                      -1  0  0  -1  1  0   0  0 -1      -1  0  0  -1  1  0   0  0 -1
                       1 -1  0   1  0  0   0  0  1       1 -1  0   1  0  0   0  0  1
                       1 -1  0   1  0  0   0  0  1       1 -1  0   1  0  0   0  0  1
                      -1  1  0  -1  0  0   0  0 -1      -1  1  0  -1  0  0   0  0 -1
                      -1  1  0  -1  0  0   0  0 -1      -1  1  0  -1  0  0   0  0 -1
                       0  1  0   1  0  0   0  0  1       0  1  0   1  0  0   0  0  1
                       0  1  0   1  0  0   0  0  1       0  1  0   1  0  0   0  0  1
                       0 -1  0  -1  0  0   0  0 -1       0 -1  0  -1  0  0   0  0 -1
                       0 -1  0  -1  0  0   0  0 -1       0 -1  0  -1  0  0   0  0 -1
            tnons      0.0000000  0.0000000  0.0000000     0.5000000 -0.0000000  0.0000000
                      -0.0000000  0.5000000  0.0000000     0.5000000  0.5000000  0.0000000
                       0.5000000  0.5000000 -0.0000000     0.0000000  0.5000000 -0.0000000
                       0.5000000  0.0000000 -0.0000000     0.0000000  0.0000000 -0.0000000
                       0.5000000  0.0000000  0.0000000     0.0000000 -0.0000000  0.0000000
                       0.5000000  0.5000000  0.0000000     0.0000000  0.5000000  0.0000000
                       0.0000000  0.5000000 -0.0000000     0.5000000  0.5000000 -0.0000000
                      -0.0000000  0.0000000 -0.0000000     0.5000000  0.0000000 -0.0000000
                       0.5000000  0.0000000  0.0000000     0.0000000 -0.0000000  0.0000000
                       0.5000000  0.5000000  0.0000000     0.0000000  0.5000000  0.0000000
                       0.0000000  0.5000000 -0.0000000     0.5000000  0.5000000 -0.0000000
                      -0.0000000  0.0000000 -0.0000000     0.5000000  0.0000000 -0.0000000
                       0.5000000  0.0000000  0.0000000     0.0000000 -0.0000000  0.0000000
                       0.5000000  0.5000000  0.0000000     0.0000000  0.5000000  0.0000000
                       0.0000000  0.5000000 -0.0000000     0.5000000  0.5000000 -0.0000000
                      -0.0000000  0.0000000 -0.0000000     0.5000000  0.0000000 -0.0000000
                       0.5000000  0.0000000  0.0000000     0.0000000 -0.0000000  0.0000000
                       0.5000000  0.5000000  0.0000000     0.0000000  0.5000000  0.0000000
                       0.0000000  0.5000000 -0.0000000     0.5000000  0.5000000 -0.0000000
                      -0.0000000  0.0000000 -0.0000000     0.5000000  0.0000000 -0.0000000
                       0.5000000  0.5000000  0.0000000     0.0000000  0.5000000  0.0000000
                       0.5000000  0.0000000  0.0000000     0.0000000  0.0000000  0.0000000
                       0.0000000  0.0000000 -0.0000000     0.5000000 -0.0000000 -0.0000000
                      -0.0000000  0.5000000 -0.0000000     0.5000000  0.5000000 -0.0000000
                       0.5000000  0.5000000  0.0000000     0.0000000  0.5000000  0.0000000
                       0.5000000  0.0000000  0.0000000     0.0000000  0.0000000  0.0000000
                       0.0000000  0.0000000 -0.0000000     0.5000000 -0.0000000 -0.0000000
                      -0.0000000  0.5000000 -0.0000000     0.5000000  0.5000000 -0.0000000
                       0.0000000  0.5000000  0.0000000     0.5000000  0.5000000  0.0000000
                      -0.0000000  0.0000000  0.0000000     0.5000000  0.0000000  0.0000000
                       0.5000000  0.0000000 -0.0000000     0.0000000 -0.0000000 -0.0000000
                       0.5000000  0.5000000 -0.0000000     0.0000000  0.5000000 -0.0000000
                       0.0000000  0.5000000  0.0000000     0.5000000  0.5000000  0.0000000
                      -0.0000000  0.0000000  0.0000000     0.5000000  0.0000000  0.0000000
                       0.5000000  0.0000000 -0.0000000     0.0000000 -0.0000000 -0.0000000
                       0.5000000  0.5000000 -0.0000000     0.0000000  0.5000000 -0.0000000
                       0.0000000  0.5000000  0.0000000     0.5000000  0.5000000  0.0000000
                      -0.0000000  0.0000000  0.0000000     0.5000000  0.0000000  0.0000000
                       0.5000000  0.0000000 -0.0000000     0.0000000 -0.0000000 -0.0000000
                       0.5000000  0.5000000 -0.0000000     0.0000000  0.5000000 -0.0000000
                       0.0000000  0.5000000  0.0000000     0.5000000  0.5000000  0.0000000
                      -0.0000000  0.0000000  0.0000000     0.5000000  0.0000000  0.0000000
                       0.5000000  0.0000000 -0.0000000     0.0000000 -0.0000000 -0.0000000
                       0.5000000  0.5000000 -0.0000000     0.0000000  0.5000000 -0.0000000
                       0.0000000  0.0000000  0.0000000     0.5000000 -0.0000000  0.0000000
                      -0.0000000  0.5000000  0.0000000     0.5000000  0.5000000  0.0000000
                       0.5000000  0.5000000 -0.0000000     0.0000000  0.5000000 -0.0000000
                       0.5000000  0.0000000 -0.0000000     0.0000000  0.0000000 -0.0000000
           toldfe1     1.00000000E-10 Hartree
           toldfe2     0.00000000E+00 Hartree
           tolwfr1     0.00000000E+00
           tolwfr2     1.00000000E-12
            typat      1  1  1  1  1  1  1  1
           useylm           1
              wtk1       0.00510    0.03061    0.03061    0.03061    0.03061    0.03061
                         0.03061    0.01531    0.03061    0.06122    0.06122    0.06122
                         0.06122    0.06122    0.03061    0.06122    0.06122    0.06122
                         0.03061    0.03061    0.06122    0.06122    0.03061    0.03061
              wtk2       1.00000    1.00000    1.00000    1.00000    1.00000    1.00000
                         1.00000    1.00000    1.00000    1.00000    1.00000    1.00000
                         1.00000    1.00000    1.00000    1.00000    1.00000    1.00000
                         1.00000    1.00000    1.00000    1.00000    1.00000    1.00000
                         1.00000    1.00000    1.00000    1.00000    1.00000    1.00000
                         1.00000    1.00000    1.00000    1.00000    1.00000    1.00000
                         1.00000    1.00000    1.00000    1.00000    1.00000    1.00000
                         1.00000    1.00000    1.00000    1.00000    1.00000    1.00000
                         1.00000    1.00000
                       outvars : Printing only first  50 k-points.
           xangst     -1.4951801884E-17  1.4245679402E+00 -1.4113492566E-30
                      -2.9903603767E-17  2.8491358804E+00 -1.1135429552E-30
                       1.2337120239E+00  3.5614198506E+00 -2.2012405116E-31
                       1.2337120239E+00  4.9859877908E+00  7.7682250203E-32
                      -1.2337120239E+00  3.5614198506E+00  6.7329485292E-31
                      -1.2337120239E+00  4.9859877908E+00  3.7548855156E-31
                      -7.0489990071E-17  5.6982717610E+00  1.0879896635E-30
                      -9.1731663131E-17  7.1228397014E+00  5.3056094481E-31
            xcart     -2.8254810753E-17  2.6920432647E+00 -2.6670635728E-30
                      -5.6509621506E-17  5.3840865294E+00 -2.1042912226E-30
                       2.3313778521E+00  6.7301081618E+00 -4.1597417196E-31
                       2.3313778521E+00  9.4221514265E+00  1.4679817827E-31
                      -2.3313778521E+00  6.7301081618E+00  1.2723428787E-30
                      -2.3313778521E+00  9.4221514265E+00  7.0957052849E-31
                      -1.3320677634E-16  1.0768173059E+01  2.0560024994E-30
                      -1.7334772103E-16  1.3460216324E+01  1.0026148825E-30
             xred      1.6666666667E-01  1.6666666667E-01 -1.7723408809E-31
                       3.3333333333E-01  3.3333333333E-01 -1.3983623777E-31
                       6.6666666667E-01  1.6666666666E-01 -2.7642686807E-32
                       8.3333333334E-01  3.3333333333E-01  9.7551635158E-33
                       1.6666666666E-01  6.6666666667E-01  8.4550864160E-32
                       3.3333333333E-01  8.3333333334E-01  4.7153013838E-32
                       6.6666666668E-01  6.6666666668E-01  1.3662731246E-31
                       8.3333333336E-01  8.3333333336E-01  6.6626658705E-32
            znucl        6.00000

================================================================================

 chkinp: Checking input parameters for consistency, jdtset=   1.

 chkinp: Checking input parameters for consistency, jdtset=   2.

================================================================================
== DATASET  1 ==================================================================
-   nproc =    6

 Real(R)+Recip(G) space primitive vectors, cartesian coordinates (Bohr,Bohr^-1):
 R(1)=  4.6627557  8.0761298  0.0000000  G(1)=  0.1072327  0.0619108  0.0000000
 R(2)= -4.6627557  8.0761298  0.0000000  G(2)= -0.1072327  0.0619108  0.0000000
 R(3)=  0.0000000  0.0000000 15.0482540  G(3)=  0.0000000  0.0000000  0.0664529
 Unit cell volume ucvol=  1.1333448E+03 bohr^3
 Angles (23,13,12)=  9.00000000E+01  9.00000000E+01  5.99999999E+01 degrees

 Coarse grid specifications (used for wave-functions):

 getcut: wavevector=  0.0000  0.0000  0.0000  ngfft=  40  40  60
         ecut(hartree)=     19.000   => boxcut(ratio)=   2.03200

 Fine grid specifications (used for densities):

 getcut: wavevector=  0.0000  0.0000  0.0000  ngfft=  60  60  96
         ecut(hartree)=     50.000   => boxcut(ratio)=   2.00417

--- Pseudopotential description ------------------------------------------------
- pspini: atom type   1  psp file is C.GGA_PBE-JTH.xml
- pspatm: opening atomic psp file    C.GGA_PBE-JTH.xml
- pspatm : Reading pseudopotential header in XML form from C.GGA_PBE-JTH.xml
 Pseudopotential format is: paw10
 basis_size (lnmax)=  4 (lmn_size=  8), orbitals=   0   0   1   1
 Spheres core radius: rc_sph= 1.50736703
 1 radial meshes are used:
  - mesh 1: r(i)=AA*[exp(BB*(i-1))-1], size=2001 , AA= 0.94549E-03 BB= 0.56729E-02
 Shapefunction is SIN type: shapef(r)=[sin(pi*r/rshp)/(pi*r/rshp)]**2
 Radius for shape functions =  1.30052589
 mmax= 2001
 Radial grid used for partial waves is grid 1
 Radial grid used for projectors is grid 1
 Radial grid used for (t)core density is grid 1
 Radial grid used for Vloc is grid 1
 Radial grid used for pseudo valence density is grid 1
 Mesh size for Vloc has been set to 1756 to avoid numerical noise.
 Compensation charge density is not taken into account in XC energy/potential
 pspatm: atomic psp has been read  and splines computed

   1.11975834E+03                                ecore*ucvol(ha*bohr**3)
--------------------------------------------------------------------------------

_setup2: Arith. and geom. avg. npw (full set) are    4483.867    4483.846

================================================================================

     iter   Etot(hartree)      deltaE(h)  residm     nres2
 ETOT  1  -46.085933200641    -4.609E+01 4.599E-02 5.145E+01
 ETOT  2  -46.003488271229     8.244E-02 2.609E-03 4.885E+00
 ETOT  3  -45.982485304819     2.100E-02 9.126E-04 2.318E-01
 ETOT  4  -45.979888400791     2.597E-03 2.154E-04 4.177E-02
 ETOT  5  -45.978470845753     1.418E-03 4.953E-05 1.643E-02
 ETOT  6  -45.977863956761     6.069E-04 1.004E-04 5.228E-03
 ETOT  7  -45.977997806131    -1.338E-04 6.884E-06 9.091E-04
 ETOT  8  -45.978320165688    -3.224E-04 2.642E-05 1.811E-05
 ETOT  9  -45.978332659755    -1.249E-05 2.790E-06 4.709E-07
 ETOT 10  -45.978333042979    -3.832E-07 8.901E-06 5.845E-09
 ETOT 11  -45.978333044922    -1.943E-09 1.049E-06 1.407E-10
 ETOT 12  -45.978333045069    -1.473E-10 3.638E-06 6.949E-12
 ETOT 13  -45.978333045062     6.878E-12 4.586E-07 1.568E-13
 ETOT 14  -45.978333045061     1.677E-12 1.581E-06 9.576E-15

 At SCF step   14, etot is converged : 
  for the second time, diff in etot=  1.677E-12 < toldfe=  1.000E-10

 Cartesian components of stress tensor (hartree/bohr^3)
  sigma(1 1)=  3.45814945E-06  sigma(3 2)=  0.00000000E+00
  sigma(2 2)=  3.45814699E-06  sigma(3 1)=  0.00000000E+00
  sigma(3 3)= -5.05452541E-06  sigma(2 1)=  0.00000000E+00


 ***** Print of fatbands activated ****** 
  Number of atom: natsph =     8
  atoms  are             =     1    2    3    4    5    6    7    8
  (fatbands are in eV and are given for each value of L)

 Integrated electronic density in atomic spheres:
 ------------------------------------------------
 Atom  Sphere_radius  Integrated_density
    1        1.50737          2.75230371
    2        1.50737          2.75230371
    3        1.50737          2.75230371
    4        1.50737          2.75230371
    5        1.50737          2.75230371
    6        1.50737          2.75230371
    7        1.50737          2.75230371
    8        1.50737          2.75230371

 PAW TEST:
 ==== Compensation charge inside spheres ============
 The following values must be close to each other ...
 Compensation charge over spherical meshes =      0.990909284361935
 Compensation charge over fine fft grid    =      0.990894139529228

 ==== Results concerning PAW augmentation regions ====

 Total pseudopotential strength Dij (hartree):
 Atom #  1
   0.43735  -4.38322   0.00000   0.00000   0.00000   0.00000   0.00000   0.00000
  -4.38322  42.09974   0.00000   0.00000   0.00000   0.00000   0.00000   0.00000
   0.00000   0.00000  -0.13676   0.00000   0.00000   0.56410   0.00000   0.00000
   0.00000   0.00000   0.00000  -0.13622   0.00000   0.00000   0.56081   0.00000
   0.00000   0.00000   0.00000   0.00000  -0.13676   0.00000   0.00000   0.56410
   0.00000   0.00000   0.56410   0.00000   0.00000   0.41166   0.00000   0.00000
   0.00000   0.00000   0.00000   0.56081   0.00000   0.00000   0.43087   0.00000
   0.00000   0.00000   0.00000   0.00000   0.56410   0.00000   0.00000   0.41166
 Atom #  8
   0.43735  -4.38322   0.00000   0.00000   0.00000   0.00000   0.00000   0.00000
  -4.38322  42.09974   0.00000   0.00000   0.00000   0.00000   0.00000   0.00000
   0.00000   0.00000  -0.13676   0.00000   0.00000   0.56410   0.00000   0.00000
   0.00000   0.00000   0.00000  -0.13622   0.00000   0.00000   0.56081   0.00000
   0.00000   0.00000   0.00000   0.00000  -0.13676   0.00000   0.00000   0.56410
   0.00000   0.00000   0.56410   0.00000   0.00000   0.41166   0.00000   0.00000
   0.00000   0.00000   0.00000   0.56081   0.00000   0.00000   0.43087   0.00000
   0.00000   0.00000   0.00000   0.00000   0.56410   0.00000   0.00000   0.41166


 Augmentation waves occupancies Rhoij:
 Atom #  1
   1.81393   0.02071   0.00000   0.00000   0.00000   0.00000   0.00000   0.00000
   0.02071   0.00029   0.00000   0.00000   0.00000   0.00000   0.00000   0.00000
   0.00000   0.00000   1.72810   0.00000   0.00000   0.04832   0.00000   0.00000
   0.00000   0.00000   0.00000   1.15307   0.00000   0.00000   0.02053   0.00000
   0.00000   0.00000   0.00000   0.00000   1.72810   0.00000   0.00000   0.04832
   0.00000   0.00000   0.04832   0.00000   0.00000   0.00148   0.00000   0.00000
   0.00000   0.00000   0.00000   0.02053   0.00000   0.00000   0.00040   0.00000
   0.00000   0.00000   0.00000   0.00000   0.04832   0.00000   0.00000   0.00148
 Atom #  8
   1.81393   0.02071   0.00000   0.00000   0.00000   0.00000   0.00000   0.00000
   0.02071   0.00029   0.00000   0.00000   0.00000   0.00000   0.00000   0.00000
   0.00000   0.00000   1.72810   0.00000   0.00000   0.04832   0.00000   0.00000
   0.00000   0.00000   0.00000   1.15307   0.00000   0.00000   0.02053   0.00000
   0.00000   0.00000   0.00000   0.00000   1.72810   0.00000   0.00000   0.04832
   0.00000   0.00000   0.04832   0.00000   0.00000   0.00148   0.00000   0.00000
   0.00000   0.00000   0.00000   0.02053   0.00000   0.00000   0.00040   0.00000
   0.00000   0.00000   0.00000   0.00000   0.04832   0.00000   0.00000   0.00148


================================================================================

 ----iterations are completed or convergence reached----

 Mean square residual over all n,k,spin=   3.8946E-09; max=  1.5811E-06
 reduced coordinates (array xred) for    8 atoms
       0.166666666672      0.166666666672      0.000000000000
       0.333333333339      0.333333333339      0.000000000000
       0.666666666672      0.166666666672      0.000000000000
       0.833333333339      0.333333333339      0.000000000000
       0.166666666672      0.666666666672      0.000000000000
       0.333333333339      0.833333333339      0.000000000000
       0.666666666672      0.666666666672      0.000000000000
       0.833333333339      0.833333333339      0.000000000000
 rms dE/dt=  7.1960E-25; max dE/dt=  1.4820E-24; dE/dt below (all hartree)
    1      -0.000000000000     -0.000000000000     -0.000000000000
    2       0.000000000000      0.000000000000     -0.000000000000
    3       0.000000000000      0.000000000000      0.000000000000
    4      -0.000000000000     -0.000000000000      0.000000000000
    5       0.000000000000     -0.000000000000     -0.000000000000
    6      -0.000000000000      0.000000000000     -0.000000000000
    7      -0.000000000000      0.000000000000      0.000000000000
    8       0.000000000000      0.000000000000      0.000000000000

 cartesian coordinates (angstrom) at end:
    1      0.00000000000000     1.42456794027045     0.00000000000000
    2     -0.00000000000000     2.84913588049118     0.00000000000000
    3      1.23371202391637     3.56141985060154     0.00000000000000
    4      1.23371202391637     4.98598779082226     0.00000000000000
    5     -1.23371202391637     3.56141985060154     0.00000000000000
    6     -1.23371202391637     4.98598779082226     0.00000000000000
    7     -0.00000000000000     5.69827176093262     0.00000000000000
    8      0.00000000000000     7.12283970115334     0.00000000000000

 cartesian forces (hartree/bohr) at end:
    1      0.00000000000000     0.00000000000000     0.00000000000000
    2     -0.00000000000000    -0.00000000000000     0.00000000000000
    3      0.00000000000000    -0.00000000000000    -0.00000000000000
    4     -0.00000000000000     0.00000000000000    -0.00000000000000
    5     -0.00000000000000    -0.00000000000000     0.00000000000000
    6      0.00000000000000     0.00000000000000     0.00000000000000
    7      0.00000000000000     0.00000000000000    -0.00000000000000
    8     -0.00000000000000    -0.00000000000000    -0.00000000000000
 frms,max,avg= 8.2944610E-26 1.9218513E-25   0.000E+00  0.000E+00  0.000E+00 h/b

 cartesian forces (eV/Angstrom) at end:
    1      0.00000000000000     0.00000000000000     0.00000000000000
    2     -0.00000000000000    -0.00000000000000     0.00000000000000
    3      0.00000000000000    -0.00000000000000    -0.00000000000000
    4     -0.00000000000000     0.00000000000000    -0.00000000000000
    5     -0.00000000000000    -0.00000000000000     0.00000000000000
    6      0.00000000000000     0.00000000000000     0.00000000000000
    7      0.00000000000000     0.00000000000000    -0.00000000000000
    8     -0.00000000000000    -0.00000000000000    -0.00000000000000
 frms,max,avg= 4.2651830E-24 9.8825561E-24   0.000E+00  0.000E+00  0.000E+00 e/A
 length scales=  9.325511408200  9.325511408200 15.048253987000 bohr
              =  4.934848095665  4.934848095665  7.963193038994 angstroms
 prteigrs : about to open file fbandgraphene_xo_DS1_EIG
 Fermi (or HOMO) energy (hartree) =  -0.02568   Average Vxc (hartree)=  -0.19701
 Eigenvalues (hartree) for nkpt=  24  k points:
 kpt#   1, nband= 17, wtk=  0.00510, kpt=  0.0000  0.0000  0.5000 (reduced coord)
  -0.72988   -0.53765   -0.53765   -0.53765   -0.49886   -0.49886   -0.49886   -0.29235
  -0.24853   -0.24853   -0.24853   -0.12469   -0.12469   -0.09958   -0.09958   -0.09958
   0.04858
 prteigrs : prtvol=0 or 1, do not print more k-points.


--------------------------------------------------------------------------------
 Components of total free energy (in Hartree) :

    Kinetic energy  =  2.72513780274794E+01
    Hartree energy  =  6.77845710184108E+01
    XC energy       = -1.71490544466802E+01
    Ewald energy    =  2.81286862767743E+01
    PspCore energy  =  9.88012057489041E-01
    Loc. psp. energy= -1.59162305586828E+02
    Spherical terms =  6.18037941353637E+00
    >>>>>>>>> Etotal= -4.59783332398185E+01

 "Double-counting" decomposition of free energy:
    Band energy     = -1.11589780288260E+01
    Ewald energy    =  2.81286862767743E+01
    PspCore energy  =  9.88012057489041E-01
    Dble-C XC-energy= -6.72170163065346E+01
    Spherical terms =  3.28096295603673E+00
    >>>> Etotal (DC)= -4.59783330450606E+01

  >Total energy in eV           = -1.25113407503170E+03
  >Total DC energy in eV        = -1.25113406973207E+03
--------------------------------------------------------------------------------

 Cartesian components of stress tensor (hartree/bohr^3)
  sigma(1 1)=  3.45814945E-06  sigma(3 2)=  0.00000000E+00
  sigma(2 2)=  3.45814699E-06  sigma(3 1)=  0.00000000E+00
  sigma(3 3)= -5.05452541E-06  sigma(2 1)=  0.00000000E+00

-Cartesian components of stress tensor (GPa)         [Pressure= -1.8258E-02 GPa]
- sigma(1 1)=  1.01742252E-01  sigma(3 2)=  0.00000000E+00
- sigma(2 2)=  1.01742180E-01  sigma(3 1)=  0.00000000E+00
- sigma(3 3)= -1.48709247E-01  sigma(2 1)=  0.00000000E+00

================================================================================
== DATASET  2 ==================================================================
-   nproc =    6

 mkfilename : getden/=0, take file _DEN from output of DATASET   1.

 Real(R)+Recip(G) space primitive vectors, cartesian coordinates (Bohr,Bohr^-1):
 R(1)=  4.6627557  8.0761298  0.0000000  G(1)=  0.1072327  0.0619108  0.0000000
 R(2)= -4.6627557  8.0761298  0.0000000  G(2)= -0.1072327  0.0619108  0.0000000
 R(3)=  0.0000000  0.0000000 15.0482540  G(3)=  0.0000000  0.0000000  0.0664529
 Unit cell volume ucvol=  1.1333448E+03 bohr^3
 Angles (23,13,12)=  9.00000000E+01  9.00000000E+01  5.99999999E+01 degrees

 Coarse grid specifications (used for wave-functions):

 getcut: wavevector=  0.0000  0.0000  0.0000  ngfft=  40  40  60
         ecut(hartree)=     19.000   => boxcut(ratio)=   2.03200

 Fine grid specifications (used for densities):

 getcut: wavevector=  0.0000  0.0000  0.0000  ngfft=  60  60  96
         ecut(hartree)=     50.000   => boxcut(ratio)=   2.00417
--------------------------------------------------------------------------------


================================================================================
 prteigrs : about to open file fbandgraphene_xo_DS2_EIG
 Non-SCF case, kpt    1 (  0.00000  0.00000  0.00000), residuals and eigenvalues=
  7.26E-13  5.50E-13  3.24E-13  5.40E-13  4.70E-13  6.15E-13  2.37E-13  4.56E-13
  3.47E-13  5.48E-13  2.93E-13  7.38E-13  1.96E-13  2.75E-13  3.78E-13  3.23E-13
  3.03E-13  8.05E-13  5.43E-13  2.43E-12
 -7.2988E-01 -5.3765E-01 -5.3765E-01 -5.3765E-01 -4.9886E-01 -4.9886E-01
 -4.9886E-01 -2.9231E-01 -2.4853E-01 -2.4853E-01 -2.4853E-01 -1.2469E-01
 -1.2469E-01 -9.9566E-02 -9.9566E-02 -9.9566E-02  4.8630E-02  4.8630E-02
  4.8630E-02  9.3429E-02
  prteigrs : nnsclo,ikpt=  100    1 max resid (incl. the buffer)=  2.42994E-12
 Non-SCF case, kpt    2 (  0.00290  0.00580  0.00000), residuals and eigenvalues=
  4.35E-13  1.83E-13  1.85E-13  1.74E-13  1.08E-13  3.38E-13  2.37E-13  1.23E-13
  9.88E-13  3.97E-13  2.72E-13  3.84E-13  6.68E-13  6.80E-13  8.23E-13  7.63E-13
  8.38E-13  8.87E-13  3.95E-13  6.36E-13
 -7.2988E-01 -5.3772E-01 -5.3772E-01 -5.3764E-01 -4.9885E-01 -4.9877E-01
 -4.9877E-01 -2.9230E-01 -2.4855E-01 -2.4853E-01 -2.4853E-01 -1.2471E-01
 -1.2470E-01 -9.9591E-02 -9.9591E-02 -9.9559E-02  4.8628E-02  4.8663E-02
  4.8663E-02  9.3437E-02
 Non-SCF case, kpt    3 (  0.00580  0.01159  0.00000), residuals and eigenvalues=
  7.14E-13  1.55E-13  9.55E-14  2.01E-13  2.67E-13  2.24E-13  5.23E-13  8.26E-13
  5.73E-13  4.00E-13  6.48E-13  5.51E-13  6.99E-13  2.27E-13  5.91E-13  7.68E-13
  6.22E-13  3.09E-13  4.73E-13  1.00E-12
 -7.2986E-01 -5.3795E-01 -5.3795E-01 -5.3763E-01 -4.9884E-01 -4.9852E-01
 -4.9852E-01 -2.9228E-01 -2.4863E-01 -2.4854E-01 -2.4854E-01 -1.2478E-01
 -1.2474E-01 -9.9668E-02 -9.9668E-02 -9.9539E-02  4.8624E-02  4.8762E-02
  4.8762E-02  9.3459E-02
  prteigrs : nnsclo,ikpt=  100    3 max resid (incl. the buffer)=  1.00313E-12
 Non-SCF case, kpt    4 (  0.00870  0.01739  0.00000), residuals and eigenvalues=
  3.47E-13  2.95E-13  4.30E-13  2.23E-13  3.20E-13  3.45E-13  1.32E-13  1.29E-13
  2.10E-13  8.10E-13  8.71E-13  7.83E-13  2.92E-13  1.56E-13  4.21E-13  2.10E-13
  9.36E-13  9.49E-13  4.62E-13  1.74E-12
 -7.2984E-01 -5.3832E-01 -5.3832E-01 -5.3761E-01 -4.9881E-01 -4.9811E-01
 -4.9811E-01 -2.9225E-01 -2.4875E-01 -2.4855E-01 -2.4855E-01 -1.2489E-01
 -1.2480E-01 -9.9795E-02 -9.9795E-02 -9.9506E-02  4.8616E-02  4.8928E-02
  4.8928E-02  9.3496E-02
  prteigrs : nnsclo,ikpt=  100    4 max resid (incl. the buffer)=  1.74096E-12
 Non-SCF case, kpt    5 (  0.01159  0.02319  0.00000), residuals and eigenvalues=
  3.60E-13  3.14E-13  4.06E-13  2.14E-13  3.29E-13  3.65E-13  1.17E-13  9.94E-13
  1.92E-13  7.78E-13  8.61E-13  5.93E-13  3.27E-13  8.57E-13  3.61E-13  2.21E-13
  7.61E-13  9.82E-13  4.54E-13  1.68E-12
 -7.2980E-01 -5.3882E-01 -5.3882E-01 -5.3757E-01 -4.9878E-01 -4.9755E-01
 -4.9755E-01 -2.9220E-01 -2.4892E-01 -2.4856E-01 -2.4856E-01 -1.2505E-01
 -1.2488E-01 -9.9972E-02 -9.9972E-02 -9.9459E-02  4.8605E-02  4.9159E-02
  4.9159E-02  9.3549E-02
  prteigrs : nnsclo,ikpt=  100    5 max resid (incl. the buffer)=  1.68041E-12
 Non-SCF case, kpt    6 (  0.01449  0.02899  0.00000), residuals and eigenvalues=
  9.53E-13  8.00E-13  4.01E-13  3.34E-13  3.05E-13  2.80E-13  8.25E-13  2.13E-13
  4.28E-13  5.20E-13  2.73E-13  7.87E-13  4.84E-13  4.43E-13  6.62E-13  9.73E-13
  5.41E-13  1.86E-13  6.60E-13  2.29E-13
 -7.2975E-01 -5.3945E-01 -5.3945E-01 -5.3753E-01 -4.9874E-01 -4.9685E-01
 -4.9685E-01 -2.9214E-01 -2.4915E-01 -2.4858E-01 -2.4858E-01 -1.2526E-01
 -1.2499E-01 -1.0020E-01 -1.0020E-01 -9.9400E-02  4.8591E-02  4.9456E-02
  4.9456E-02  9.3616E-02
 Non-SCF case, kpt    7 (  0.01739  0.03478  0.00000), residuals and eigenvalues=
  9.46E-13  7.61E-13  4.22E-13  2.92E-13  3.04E-13  2.31E-13  7.05E-13  2.11E-13
  4.24E-13  5.05E-13  2.90E-13  6.89E-13  4.51E-13  4.25E-13  6.31E-13  8.51E-13
  4.08E-13  1.84E-13  5.69E-13  2.00E-13
 -7.2969E-01 -5.4018E-01 -5.4018E-01 -5.3748E-01 -4.9869E-01 -4.9602E-01
 -4.9602E-01 -2.9207E-01 -2.4942E-01 -2.4860E-01 -2.4860E-01 -1.2551E-01
 -1.2512E-01 -1.0048E-01 -1.0048E-01 -9.9326E-02  4.8574E-02  4.9817E-02
  4.9817E-02  9.3697E-02
 Non-SCF case, kpt    8 (  0.02029  0.04058  0.00000), residuals and eigenvalues=
  9.31E-13  2.28E-13  1.65E-13  9.51E-13  3.49E-13  1.48E-13  2.32E-13  1.54E-13
  8.07E-13  1.20E-13  3.76E-13  3.73E-13  3.84E-13  3.11E-13  5.38E-13  3.76E-13
  7.90E-13  9.19E-13  2.74E-13  3.93E-13
 -7.2962E-01 -5.4102E-01 -5.4102E-01 -5.3742E-01 -4.9863E-01 -4.9507E-01
 -4.9507E-01 -2.9199E-01 -2.4974E-01 -2.4863E-01 -2.4863E-01 -1.2581E-01
 -1.2528E-01 -1.0080E-01 -1.0080E-01 -9.9240E-02  4.8553E-02  5.0242E-02
  5.0242E-02  9.3794E-02
 Non-SCF case, kpt    9 (  0.02319  0.04638  0.00000), residuals and eigenvalues=
  4.93E-13  1.88E-13  4.95E-13  3.08E-13  3.29E-13  1.78E-13  3.22E-13  1.07E-13
  1.94E-13  1.97E-13  2.50E-13  1.96E-13  4.90E-13  3.90E-13  4.78E-13  4.51E-13
  7.56E-13  4.90E-13  5.62E-13  7.74E-13
 -7.2953E-01 -5.4195E-01 -5.4195E-01 -5.3735E-01 -4.9856E-01 -4.9402E-01
 -4.9402E-01 -2.9189E-01 -2.5011E-01 -2.4866E-01 -2.4866E-01 -1.2615E-01
 -1.2546E-01 -1.0117E-01 -1.0117E-01 -9.9140E-02  4.8530E-02  5.0730E-02
  5.0730E-02  9.3906E-02
 Non-SCF case, kpt   10 (  0.02609  0.05217  0.00000), residuals and eigenvalues=
  5.76E-13  7.74E-13  1.64E-13  9.33E-13  7.24E-13  6.02E-13  2.06E-13  2.15E-13
  2.56E-13  5.64E-13  3.03E-13  4.63E-13  6.50E-13  3.52E-13  9.25E-13  9.96E-13
  3.48E-13  6.52E-13  5.88E-13  2.11E-13
 -7.2944E-01 -5.4295E-01 -5.4295E-01 -5.3727E-01 -4.9848E-01 -4.9287E-01
 -4.9287E-01 -2.9178E-01 -2.5053E-01 -2.4870E-01 -2.4870E-01 -1.2653E-01
 -1.2567E-01 -1.0159E-01 -1.0159E-01 -9.9027E-02  4.8503E-02  5.1279E-02
  5.1279E-02  9.4032E-02
 Non-SCF case, kpt   11 (  0.02899  0.05797  0.00000), residuals and eigenvalues=
  8.54E-13  1.91E-13  1.75E-13  2.27E-13  3.59E-13  1.39E-13  1.59E-13  1.33E-13
  3.73E-13  4.71E-13  4.87E-13  4.77E-13  2.10E-13  4.08E-13  5.91E-13  5.75E-13
  8.48E-13  3.29E-13  7.01E-13  2.61E-13
 -7.2934E-01 -5.4402E-01 -5.4402E-01 -5.3718E-01 -4.9839E-01 -4.9164E-01
 -4.9164E-01 -2.9165E-01 -2.5099E-01 -2.4874E-01 -2.4874E-01 -1.2696E-01
 -1.2590E-01 -1.0206E-01 -1.0206E-01 -9.8901E-02  4.8473E-02  5.1889E-02
  5.1889E-02  9.4174E-02
 Non-SCF case, kpt   12 (  0.03188  0.06377  0.00000), residuals and eigenvalues=
  9.52E-13  7.74E-13  2.56E-13  2.75E-13  1.70E-13  1.63E-13  3.95E-13  8.80E-13
  7.05E-13  5.90E-13  2.54E-13  9.07E-13  2.62E-13  3.82E-13  4.65E-13  4.10E-13
  2.86E-13  2.91E-13  2.19E-13  8.17E-13
 -7.2922E-01 -5.4514E-01 -5.4514E-01 -5.3708E-01 -4.9830E-01 -4.9034E-01
 -4.9034E-01 -2.9152E-01 -2.5150E-01 -2.4878E-01 -2.4878E-01 -1.2743E-01
 -1.2615E-01 -1.0257E-01 -1.0257E-01 -9.8761E-02  4.8439E-02  5.2558E-02
  5.2558E-02  9.4330E-02
 Non-SCF case, kpt   13 (  0.03478  0.06957  0.00000), residuals and eigenvalues=
  9.70E-13  7.62E-13  2.57E-13  2.73E-13  1.70E-13  1.69E-13  4.20E-13  8.72E-13
  7.04E-13  5.66E-13  2.72E-13  8.77E-13  2.55E-13  3.58E-13  4.52E-13  4.17E-13
  3.43E-13  3.06E-13  2.47E-13  7.15E-13
 -7.2910E-01 -5.4631E-01 -5.4631E-01 -5.3697E-01 -4.9819E-01 -4.8898E-01
 -4.8898E-01 -2.9137E-01 -2.5206E-01 -2.4883E-01 -2.4883E-01 -1.2795E-01
 -1.2642E-01 -1.0312E-01 -1.0312E-01 -9.8608E-02  4.8401E-02  5.3285E-02
  5.3285E-02  9.4501E-02
 Non-SCF case, kpt   14 (  0.03768  0.07536  0.00000), residuals and eigenvalues=
  5.15E-13  3.80E-13  5.85E-13  2.89E-13  8.05E-13  2.44E-13  9.33E-14  1.97E-13
  2.81E-13  6.75E-13  8.18E-13  7.90E-13  4.74E-13  5.62E-13  6.61E-13  9.21E-13
  4.63E-13  6.79E-13  5.48E-13  2.80E-13
 -7.2896E-01 -5.4752E-01 -5.4752E-01 -5.3685E-01 -4.9807E-01 -4.8756E-01
 -4.8756E-01 -2.9120E-01 -2.5267E-01 -2.4889E-01 -2.4889E-01 -1.2851E-01
 -1.2673E-01 -1.0371E-01 -1.0371E-01 -9.8442E-02  4.8360E-02  5.4069E-02
  5.4069E-02  9.4687E-02
 Non-SCF case, kpt   15 (  0.04058  0.08116  0.00000), residuals and eigenvalues=
  5.30E-13  3.96E-13  6.09E-13  2.93E-13  8.09E-13  2.37E-13  9.22E-14  1.96E-13
  2.70E-13  6.79E-13  8.24E-13  7.40E-13  4.57E-13  5.32E-13  6.37E-13  1.00E-12
  5.16E-13  6.15E-13  5.10E-13  2.93E-13
 -7.2881E-01 -5.4877E-01 -5.4877E-01 -5.3673E-01 -4.9795E-01 -4.8609E-01
 -4.8609E-01 -2.9103E-01 -2.5332E-01 -2.4894E-01 -2.4894E-01 -1.2911E-01
 -1.2705E-01 -1.0434E-01 -1.0434E-01 -9.8263E-02  4.8316E-02  5.4907E-02
  5.4907E-02  9.4888E-02
 Non-SCF case, kpt   16 (  0.04348  0.08696  0.00000), residuals and eigenvalues=
  8.72E-13  5.03E-13  7.73E-13  2.42E-13  2.35E-13  4.28E-13  3.34E-13  1.37E-13
  7.07E-13  5.71E-13  6.23E-13  8.13E-13  2.51E-13  3.96E-13  4.96E-13  2.49E-13
  4.21E-13  3.77E-13  9.77E-13  1.99E-13
 -7.2865E-01 -5.5004E-01 -5.5004E-01 -5.3659E-01 -4.9782E-01 -4.8457E-01
 -4.8457E-01 -2.9084E-01 -2.5402E-01 -2.4900E-01 -2.4900E-01 -1.2976E-01
 -1.2740E-01 -1.0502E-01 -1.0502E-01 -9.8070E-02  4.8267E-02  5.5800E-02
  5.5800E-02  9.5104E-02
 Non-SCF case, kpt   17 (  0.04638  0.09275  0.00000), residuals and eigenvalues=
  8.84E-13  5.23E-13  8.10E-13  2.43E-13  2.34E-13  3.84E-13  3.25E-13  1.38E-13
  6.64E-13  5.51E-13  6.10E-13  7.45E-13  2.37E-13  3.82E-13  4.75E-13  2.54E-13
  4.13E-13  4.52E-13  7.05E-13  1.95E-13
 -7.2848E-01 -5.5134E-01 -5.5134E-01 -5.3645E-01 -4.9767E-01 -4.8301E-01
 -4.8301E-01 -2.9064E-01 -2.5476E-01 -2.4907E-01 -2.4907E-01 -1.3044E-01
 -1.2777E-01 -1.0572E-01 -1.0572E-01 -9.7864E-02  4.8215E-02  5.6744E-02
  5.6744E-02  9.5335E-02
 Non-SCF case, kpt   18 (  0.04928  0.09855  0.00000), residuals and eigenvalues=
  4.89E-13  2.03E-13  9.18E-13  2.20E-13  1.46E-13  4.43E-13  3.90E-13  5.66E-13
  2.38E-13  9.21E-13  1.83E-13  1.15E-13  1.64E-13  2.73E-13  1.21E-13  1.86E-13
  1.80E-13  4.24E-13  5.36E-13  9.27E-13
 -7.2830E-01 -5.5266E-01 -5.5266E-01 -5.3629E-01 -4.9752E-01 -4.8141E-01
 -4.8141E-01 -2.9042E-01 -2.5555E-01 -2.4913E-01 -2.4913E-01 -1.3117E-01
 -1.2816E-01 -1.0647E-01 -1.0647E-01 -9.7644E-02  4.8159E-02  5.7739E-02
  5.7739E-02  9.5581E-02
 Non-SCF case, kpt   19 (  0.05217  0.10435  0.00000), residuals and eigenvalues=
  7.98E-13  5.34E-13  2.90E-13  9.07E-13  6.79E-13  4.08E-13  2.35E-13  1.60E-13
  9.12E-13  3.62E-13  3.74E-13  2.22E-13  4.45E-13  9.07E-13  4.93E-13  5.42E-13
  5.28E-13  1.74E-13  1.08E-12  2.74E-13
 -7.2811E-01 -5.5400E-01 -5.5400E-01 -5.3613E-01 -4.9736E-01 -4.7978E-01
 -4.7978E-01 -2.9019E-01 -2.5638E-01 -2.4921E-01 -2.4921E-01 -1.3193E-01
 -1.2858E-01 -1.0725E-01 -1.0725E-01 -9.7412E-02  4.8098E-02  5.8783E-02
  5.8783E-02  9.5841E-02
  prteigrs : nnsclo,ikpt=  100   19 max resid (incl. the buffer)=  1.07795E-12
 Non-SCF case, kpt   20 (  0.05507  0.11014  0.00000), residuals and eigenvalues=
  8.10E-13  8.53E-13  3.25E-13  5.79E-13  3.81E-13  1.96E-13  7.25E-14  3.26E-13
  2.44E-13  4.53E-13  2.62E-13  1.87E-13  5.10E-13  5.12E-13  2.98E-13  9.95E-13
  8.73E-13  2.06E-13  4.93E-13  5.59E-13
 -7.2791E-01 -5.5535E-01 -5.5535E-01 -5.3595E-01 -4.9719E-01 -4.7813E-01
 -4.7813E-01 -2.8995E-01 -2.5725E-01 -2.4928E-01 -2.4928E-01 -1.3274E-01
 -1.2902E-01 -1.0806E-01 -1.0806E-01 -9.7166E-02  4.8033E-02  5.9873E-02
  5.9873E-02  9.6117E-02
 Non-SCF case, kpt   21 (  0.05797  0.11594  0.00000), residuals and eigenvalues=
  9.97E-13  2.66E-13  1.37E-13  2.18E-13  3.69E-13  1.48E-13  5.45E-14  1.67E-13
  2.00E-13  7.71E-13  3.53E-13  7.36E-13  4.13E-13  2.66E-13  2.43E-13  3.00E-13
  3.81E-13  6.80E-13  7.29E-13  7.43E-13
 -7.2770E-01 -5.5671E-01 -5.5671E-01 -5.3577E-01 -4.9701E-01 -4.7644E-01
 -4.7644E-01 -2.8970E-01 -2.5817E-01 -2.4936E-01 -2.4936E-01 -1.3359E-01
 -1.2949E-01 -1.0890E-01 -1.0890E-01 -9.6907E-02  4.7964E-02  6.1010E-02
  6.1010E-02  9.6407E-02
 Non-SCF case, kpt   22 (  0.06087  0.12174  0.00000), residuals and eigenvalues=
  5.78E-13  4.74E-13  3.36E-13  7.19E-13  1.27E-13  6.59E-13  8.89E-13  1.34E-13
  4.20E-13  4.45E-13  1.57E-13  2.67E-13  2.48E-13  2.86E-13  4.50E-13  4.79E-13
  4.11E-13  4.97E-13  6.64E-13  6.24E-13
 -7.2747E-01 -5.5808E-01 -5.5808E-01 -5.3558E-01 -4.9682E-01 -4.7473E-01
 -4.7473E-01 -2.8943E-01 -2.5912E-01 -2.4945E-01 -2.4945E-01 -1.3447E-01
 -1.2997E-01 -1.0977E-01 -1.0977E-01 -9.6634E-02  4.7890E-02  6.2190E-02
  6.2190E-02  9.6712E-02
 Non-SCF case, kpt   23 (  0.06377  0.12754  0.00000), residuals and eigenvalues=
  9.59E-13  5.37E-13  3.21E-13  1.58E-13  1.77E-13  5.67E-13  4.91E-13  9.64E-13
  4.43E-13  7.91E-13  4.62E-13  1.19E-13  2.60E-13  1.32E-13  1.93E-13  5.54E-13
  6.83E-13  8.03E-13  3.29E-13  5.94E-13
 -7.2724E-01 -5.5945E-01 -5.5945E-01 -5.3538E-01 -4.9663E-01 -4.7299E-01
 -4.7299E-01 -2.8915E-01 -2.6012E-01 -2.4953E-01 -2.4953E-01 -1.3539E-01
 -1.3048E-01 -1.1067E-01 -1.1067E-01 -9.6349E-02  4.7812E-02  6.3413E-02
  6.3413E-02  9.7032E-02
 Non-SCF case, kpt   24 (  0.06667  0.13333  0.00000), residuals and eigenvalues=
  4.67E-13  3.49E-13  5.82E-13  2.64E-13  3.82E-13  8.27E-13  4.48E-13  6.82E-13
  3.56E-13  2.07E-13  5.73E-13  2.55E-13  4.05E-13  7.10E-13  2.29E-13  5.15E-13
  3.84E-13  2.18E-13  2.14E-13  8.77E-13
 -7.2699E-01 -5.6083E-01 -5.6083E-01 -5.3516E-01 -4.9642E-01 -4.7124E-01
 -4.7124E-01 -2.8886E-01 -2.6116E-01 -2.4962E-01 -2.4962E-01 -1.3635E-01
 -1.3101E-01 -1.1160E-01 -1.1160E-01 -9.6050E-02  4.7729E-02  6.4677E-02
  6.4677E-02  9.7367E-02
 Non-SCF case, kpt   25 (  0.06957  0.13913  0.00000), residuals and eigenvalues=
  5.01E-13  6.04E-13  9.99E-13  3.35E-13  4.23E-13  5.39E-13  6.24E-13  1.36E-13
  2.15E-13  3.76E-13  2.94E-13  2.32E-13  4.32E-13  4.83E-13  2.75E-13  5.65E-13
  2.50E-13  1.60E-13  2.25E-12  6.39E-13
 -7.2673E-01 -5.6222E-01 -5.6222E-01 -5.3494E-01 -4.9621E-01 -4.6946E-01
 -4.6946E-01 -2.8855E-01 -2.6224E-01 -2.4972E-01 -2.4972E-01 -1.3734E-01
 -1.3157E-01 -1.1255E-01 -1.1255E-01 -9.5737E-02  4.7640E-02  6.5980E-02
  6.5980E-02  9.7717E-02
  prteigrs : nnsclo,ikpt=  100   25 max resid (incl. the buffer)=  2.25396E-12
 Non-SCF case, kpt   26 (  0.07246  0.14493  0.00000), residuals and eigenvalues=
  5.00E-13  6.45E-13  1.40E-13  3.35E-13  4.22E-13  5.10E-13  6.20E-13  1.32E-13
  2.15E-13  3.55E-13  2.74E-13  2.36E-13  4.04E-13  4.77E-13  9.60E-13  5.53E-13
  2.70E-13  1.43E-13  2.76E-12  6.86E-13
 -7.2647E-01 -5.6360E-01 -5.6360E-01 -5.3471E-01 -4.9598E-01 -4.6767E-01
 -4.6767E-01 -2.8823E-01 -2.6335E-01 -2.4982E-01 -2.4982E-01 -1.3837E-01
 -1.3215E-01 -1.1353E-01 -1.1353E-01 -9.5412E-02  4.7547E-02  6.7320E-02
  6.7320E-02  9.8082E-02
  prteigrs : nnsclo,ikpt=  100   26 max resid (incl. the buffer)=  2.76446E-12
 Non-SCF case, kpt   27 (  0.07536  0.15072  0.00000), residuals and eigenvalues=
  4.96E-13  4.02E-13  8.98E-13  3.61E-13  3.27E-13  3.55E-13  4.83E-13  3.02E-13
  1.40E-13  2.76E-13  1.46E-13  7.73E-13  4.05E-13  3.69E-13  7.86E-13  2.88E-13
  7.03E-13  4.24E-13  1.42E-11  8.92E-13
 -7.2619E-01 -5.6499E-01 -5.6499E-01 -5.3447E-01 -4.9575E-01 -4.6585E-01
 -4.6585E-01 -2.8790E-01 -2.6450E-01 -2.4992E-01 -2.4992E-01 -1.3944E-01
 -1.3275E-01 -1.1453E-01 -1.1453E-01 -9.5073E-02  4.7448E-02  6.8697E-02
  6.8697E-02  9.8462E-02
  prteigrs : nnsclo,ikpt=  100   27 max resid (incl. the buffer)=  1.42073E-11
 Non-SCF case, kpt   28 (  0.07826  0.15652  0.00000), residuals and eigenvalues=
  4.42E-13  6.51E-13  2.73E-13  3.26E-13  2.82E-13  6.93E-13  4.52E-13  5.70E-13
  7.23E-13  4.21E-13  1.72E-13  2.00E-13  1.37E-13  4.36E-13  2.32E-13  2.27E-13
  2.74E-13  9.38E-13  5.07E-13  3.19E-13
 -7.2590E-01 -5.6638E-01 -5.6638E-01 -5.3423E-01 -4.9551E-01 -4.6403E-01
 -4.6403E-01 -2.8755E-01 -2.6570E-01 -2.5002E-01 -2.5002E-01 -1.4054E-01
 -1.3337E-01 -1.1555E-01 -1.1555E-01 -9.4721E-02  4.7344E-02  7.0108E-02
  7.0108E-02  9.8856E-02
 Non-SCF case, kpt   29 (  0.08116  0.16232  0.00000), residuals and eigenvalues=
  4.42E-13  6.85E-13  2.89E-13  3.19E-13  2.76E-13  6.54E-13  4.29E-13  5.60E-13
  6.78E-13  4.02E-13  1.70E-13  1.68E-13  1.19E-13  3.88E-13  2.18E-13  2.26E-13
  2.79E-13  6.24E-13  7.72E-13  3.02E-13
 -7.2560E-01 -5.6777E-01 -5.6777E-01 -5.3397E-01 -4.9526E-01 -4.6218E-01
 -4.6218E-01 -2.8720E-01 -2.6692E-01 -2.5013E-01 -2.5013E-01 -1.4167E-01
 -1.3401E-01 -1.1659E-01 -1.1659E-01 -9.4356E-02  4.7234E-02  7.1552E-02
  7.1552E-02  9.9266E-02
 Non-SCF case, kpt   30 (  0.08406  0.16812  0.00000), residuals and eigenvalues=
  4.40E-13  7.21E-13  3.06E-13  3.12E-13  2.71E-13  6.15E-13  4.07E-13  5.51E-13
  6.39E-13  3.86E-13  1.68E-13  1.42E-13  9.53E-13  3.50E-13  2.04E-13  2.23E-13
  2.83E-13  8.63E-13  6.10E-13  2.85E-13
 -7.2528E-01 -5.6915E-01 -5.6915E-01 -5.3370E-01 -4.9500E-01 -4.6033E-01
 -4.6033E-01 -2.8683E-01 -2.6818E-01 -2.5024E-01 -2.5024E-01 -1.4284E-01
 -1.3468E-01 -1.1764E-01 -1.1764E-01 -9.3978E-02  4.7118E-02  7.3029E-02
  7.3029E-02  9.9690E-02
 Non-SCF case, kpt   31 (  0.08696  0.17391  0.00000), residuals and eigenvalues=
  4.37E-13  7.59E-13  3.24E-13  3.05E-13  2.65E-13  5.77E-13  3.85E-13  5.42E-13
  6.03E-13  3.73E-13  1.64E-13  1.18E-13  8.36E-13  3.22E-13  1.91E-13  2.19E-13
  2.85E-13  4.01E-13  9.20E-13  2.68E-13
 -7.2496E-01 -5.7053E-01 -5.7053E-01 -5.3342E-01 -4.9473E-01 -4.5846E-01
 -4.5846E-01 -2.8644E-01 -2.6948E-01 -2.5035E-01 -2.5035E-01 -1.4404E-01
 -1.3536E-01 -1.1872E-01 -1.1872E-01 -9.3586E-02  4.6996E-02  7.4536E-02
  7.4536E-02  1.0013E-01
 Non-SCF case, kpt   32 (  0.08986  0.17971  0.00000), residuals and eigenvalues=
  4.33E-13  7.99E-13  3.44E-13  2.98E-13  2.60E-13  5.41E-13  3.62E-13  5.33E-13
  5.70E-13  3.78E-13  9.62E-13  9.88E-14  7.41E-13  3.02E-13  1.79E-13  2.12E-13
  2.87E-13  4.41E-13  2.56E-13  2.50E-13
 -7.2463E-01 -5.7192E-01 -5.7192E-01 -5.3314E-01 -4.9446E-01 -4.5657E-01
 -4.5657E-01 -2.8605E-01 -2.7081E-01 -2.5047E-01 -2.5047E-01 -1.4526E-01
 -1.3607E-01 -1.1981E-01 -1.1981E-01 -9.3181E-02  4.6867E-02  7.6071E-02
  7.6071E-02  1.0058E-01
 Non-SCF case, kpt   33 (  0.09275  0.18551  0.00000), residuals and eigenvalues=
  6.57E-13  7.33E-13  5.22E-13  4.16E-13  3.62E-13  3.10E-13  3.81E-13  1.99E-13
  3.10E-13  4.47E-13  2.89E-13  3.30E-13  4.08E-13  1.82E-13  8.12E-13  6.34E-13
  5.02E-13  9.42E-13  6.59E-11  3.64E-11
 -7.2428E-01 -5.7329E-01 -5.7329E-01 -5.3284E-01 -4.9417E-01 -4.5468E-01
 -4.5468E-01 -2.8564E-01 -2.7217E-01 -2.5059E-01 -2.5059E-01 -1.4652E-01
 -1.3680E-01 -1.2092E-01 -1.2092E-01 -9.2763E-02  4.6732E-02  7.7635E-02
  7.7635E-02  1.0105E-01
  prteigrs : nnsclo,ikpt=  100   33 max resid (incl. the buffer)=  6.58875E-11
 Non-SCF case, kpt   34 (  0.09565  0.19130  0.00000), residuals and eigenvalues=
  5.39E-13  6.57E-13  8.86E-13  6.27E-13  1.20E-13  4.48E-13  1.74E-13  2.96E-13
  3.83E-13  3.59E-13  5.09E-13  1.05E-13  1.47E-13  1.88E-13  2.77E-13  5.40E-13
  9.96E-13  5.69E-13  1.27E-12  3.73E-13
 -7.2393E-01 -5.7466E-01 -5.7466E-01 -5.3254E-01 -4.9388E-01 -4.5277E-01
 -4.5277E-01 -2.8521E-01 -2.7356E-01 -2.5071E-01 -2.5071E-01 -1.4781E-01
 -1.3755E-01 -1.2203E-01 -1.2203E-01 -9.2332E-02  4.6591E-02  7.9225E-02
  7.9225E-02  1.0154E-01
  prteigrs : nnsclo,ikpt=  100   34 max resid (incl. the buffer)=  1.27052E-12
 Non-SCF case, kpt   35 (  0.09855  0.19710  0.00000), residuals and eigenvalues=
  7.59E-13  6.88E-13  1.06E-13  6.60E-13  1.98E-13  4.30E-13  2.26E-13  4.05E-13
  5.25E-13  8.71E-13  1.01E-13  1.48E-13  1.26E-13  2.33E-13  3.65E-13  3.68E-13
  3.48E-13  8.41E-13  3.78E-13  3.73E-13
 -7.2356E-01 -5.7603E-01 -5.7603E-01 -5.3222E-01 -4.9358E-01 -4.5085E-01
 -4.5085E-01 -2.8478E-01 -2.7498E-01 -2.5084E-01 -2.5084E-01 -1.4913E-01
 -1.3832E-01 -1.2317E-01 -1.2317E-01 -9.1887E-02  4.6442E-02  8.0840E-02
  8.0840E-02  1.0204E-01
 Non-SCF case, kpt   36 (  0.10145  0.20290  0.00000), residuals and eigenvalues=
  4.60E-13  1.10E-13  9.11E-13  3.18E-13  3.69E-13  1.92E-13  1.92E-13  1.46E-13
  8.78E-13  1.96E-13  1.59E-13  1.03E-13  9.60E-13  6.91E-13  5.07E-13  5.23E-13
  2.77E-13  2.20E-13  8.95E-13  3.24E-13
 -7.2319E-01 -5.7740E-01 -5.7740E-01 -5.3190E-01 -4.9327E-01 -4.4892E-01
 -4.4892E-01 -2.8433E-01 -2.7644E-01 -2.5097E-01 -2.5097E-01 -1.5048E-01
 -1.3912E-01 -1.2431E-01 -1.2431E-01 -9.1429E-02  4.6286E-02  8.2480E-02
  8.2480E-02  1.0255E-01
 Non-SCF case, kpt   37 (  0.10435  0.20870  0.00000), residuals and eigenvalues=
  4.43E-13  1.15E-13  9.64E-13  3.09E-13  3.63E-13  1.92E-13  1.85E-13  1.31E-13
  8.03E-13  1.91E-13  1.60E-13  9.70E-13  8.05E-13  6.10E-13  4.68E-13  5.10E-13
  2.61E-13  2.11E-13  8.25E-13  3.19E-13
 -7.2280E-01 -5.7875E-01 -5.7875E-01 -5.3156E-01 -4.9295E-01 -4.4698E-01
 -4.4698E-01 -2.8387E-01 -2.7792E-01 -2.5110E-01 -2.5110E-01 -1.5185E-01
 -1.3993E-01 -1.2546E-01 -1.2546E-01 -9.0958E-02  4.6122E-02  8.4142E-02
  8.4142E-02  1.0308E-01
 Non-SCF case, kpt   38 (  0.10725  0.21449  0.00000), residuals and eigenvalues=
  4.88E-13  8.36E-13  3.89E-13  1.75E-13  5.43E-13  2.05E-13  5.50E-13  1.14E-13
  4.14E-13  8.44E-13  5.21E-13  6.34E-13  7.20E-13  2.65E-13  4.40E-13  5.00E-13
  3.69E-13  7.37E-13  9.26E-13  7.31E-13
 -7.2240E-01 -5.8011E-01 -5.8011E-01 -5.3122E-01 -4.9263E-01 -4.4503E-01
 -4.4503E-01 -2.8339E-01 -2.7943E-01 -2.5123E-01 -2.5123E-01 -1.5325E-01
 -1.4076E-01 -1.2663E-01 -1.2663E-01 -9.0474E-02  4.5951E-02  8.5825E-02
  8.5825E-02  1.0362E-01
 Non-SCF case, kpt   39 (  0.11014  0.22029  0.00000), residuals and eigenvalues=
  4.68E-13  8.84E-13  4.17E-13  1.69E-13  5.42E-13  5.14E-13  2.17E-13  9.24E-13
  4.24E-13  8.66E-13  5.24E-13  5.79E-13  6.68E-13  2.55E-13  4.10E-13  5.61E-13
  3.54E-13  9.76E-13  2.11E-13  6.89E-13
 -7.2199E-01 -5.8145E-01 -5.8145E-01 -5.3087E-01 -4.9229E-01 -4.4307E-01
 -4.4307E-01 -2.8291E-01 -2.8097E-01 -2.5136E-01 -2.5136E-01 -1.5468E-01
 -1.4162E-01 -1.2780E-01 -1.2780E-01 -8.9977E-02  4.5772E-02  8.7530E-02
  8.7530E-02  1.0418E-01
 Non-SCF case, kpt   40 (  0.11304  0.22609  0.00000), residuals and eigenvalues=
  4.48E-13  9.35E-13  4.47E-13  1.64E-13  5.40E-13  4.99E-13  2.08E-13  6.73E-13
  7.44E-13  8.96E-13  5.24E-13  5.33E-13  6.19E-13  9.53E-13  4.14E-13  6.30E-13
  3.37E-13  1.98E-13  3.57E-13  5.78E-13
 -7.2157E-01 -5.8279E-01 -5.8279E-01 -5.3051E-01 -4.9195E-01 -4.4111E-01
 -4.4111E-01 -2.8253E-01 -2.8241E-01 -2.5150E-01 -2.5150E-01 -1.5613E-01
 -1.4249E-01 -1.2898E-01 -1.2898E-01 -8.9467E-02  4.5584E-02  8.9254E-02
  8.9254E-02  1.0475E-01
 Non-SCF case, kpt   41 (  0.11594  0.23188  0.00000), residuals and eigenvalues=
  9.93E-13  9.91E-13  4.80E-13  1.59E-13  5.39E-13  4.84E-13  2.00E-13  4.36E-13
  1.16E-13  9.58E-13  5.42E-13  4.95E-13  5.71E-13  9.14E-13  3.88E-13  7.02E-13
  3.20E-13  2.47E-13  7.02E-13  4.75E-13
 -7.2114E-01 -5.8413E-01 -5.8413E-01 -5.3014E-01 -4.9160E-01 -4.3913E-01
 -4.3913E-01 -2.8412E-01 -2.8190E-01 -2.5164E-01 -2.5164E-01 -1.5760E-01
 -1.4338E-01 -1.3017E-01 -1.3017E-01 -8.8943E-02  4.5388E-02  9.0996E-02
  9.0996E-02  1.0534E-01
 Non-SCF case, kpt   42 (  0.11884  0.23768  0.00000), residuals and eigenvalues=
  5.09E-13  2.18E-13  9.32E-14  6.88E-13  3.04E-13  3.22E-13  2.14E-13  2.13E-13
  3.64E-13  5.89E-13  2.43E-13  2.20E-13  5.41E-13  5.11E-13  5.37E-13  2.02E-13
  7.31E-13  3.90E-13  2.16E-13  9.64E-13
 -7.2070E-01 -5.8545E-01 -5.8545E-01 -5.2976E-01 -4.9124E-01 -4.3715E-01
 -4.3715E-01 -2.8574E-01 -2.8137E-01 -2.5178E-01 -2.5178E-01 -1.5910E-01
 -1.4429E-01 -1.3136E-01 -1.3136E-01 -8.8406E-02  4.5183E-02  9.2756E-02
  9.2756E-02  1.0595E-01
 Non-SCF case, kpt   43 (  0.12174  0.24348  0.00000), residuals and eigenvalues=
  7.34E-13  2.20E-13  1.30E-13  9.02E-13  1.74E-13  8.87E-13  2.11E-13  3.64E-13
  1.97E-13  3.57E-13  2.60E-13  1.37E-13  1.58E-13  2.44E-13  3.03E-13  4.50E-13
  8.16E-13  3.12E-13  2.67E-12  1.73E-13
 -7.2024E-01 -5.8677E-01 -5.8677E-01 -5.2937E-01 -4.9088E-01 -4.3515E-01
 -4.3515E-01 -2.8738E-01 -2.8083E-01 -2.5193E-01 -2.5193E-01 -1.6062E-01
 -1.4523E-01 -1.3256E-01 -1.3256E-01 -8.7857E-02  4.4969E-02  9.4532E-02
  9.4532E-02  1.0656E-01
  prteigrs : nnsclo,ikpt=  100   43 max resid (incl. the buffer)=  2.66756E-12
 Non-SCF case, kpt   44 (  0.12464  0.24928  0.00000), residuals and eigenvalues=
  6.89E-13  2.34E-13  1.39E-13  8.90E-13  1.75E-13  8.51E-13  2.14E-13  3.48E-13
  1.95E-13  3.49E-13  2.48E-13  1.22E-13  1.43E-13  2.41E-13  3.00E-13  4.40E-13
  8.52E-13  4.69E-13  1.28E-13  2.46E-13
 -7.1978E-01 -5.8808E-01 -5.8808E-01 -5.2897E-01 -4.9050E-01 -4.3316E-01
 -4.3316E-01 -2.8904E-01 -2.8028E-01 -2.5207E-01 -2.5207E-01 -1.6217E-01
 -1.4618E-01 -1.3377E-01 -1.3377E-01 -8.7294E-02  4.4746E-02  9.6324E-02
  9.6324E-02  1.0720E-01
 Non-SCF case, kpt   45 (  0.12754  0.25507  0.00000), residuals and eigenvalues=
  6.47E-13  2.49E-13  1.48E-13  8.78E-13  1.77E-13  8.15E-13  2.21E-13  3.34E-13
  1.93E-13  3.40E-13  2.36E-13  1.09E-13  1.29E-13  2.36E-13  2.95E-13  4.41E-13
  8.81E-13  5.16E-13  6.92E-13  4.54E-13
 -7.1930E-01 -5.8939E-01 -5.8939E-01 -5.2856E-01 -4.9012E-01 -4.3115E-01
 -4.3115E-01 -2.9072E-01 -2.7972E-01 -2.5222E-01 -2.5222E-01 -1.6373E-01
 -1.4715E-01 -1.3498E-01 -1.3498E-01 -8.6717E-02  4.4513E-02  9.8131E-02
  9.8131E-02  1.0784E-01
 Non-SCF case, kpt   46 (  0.13043  0.26087  0.00000), residuals and eigenvalues=
  6.08E-13  2.63E-13  1.60E-13  8.67E-13  1.72E-13  7.99E-13  3.09E-13  3.32E-13
  1.90E-13  3.34E-13  2.26E-13  9.78E-14  1.15E-13  2.30E-13  2.89E-13  4.49E-13
  9.11E-13  9.44E-13  3.97E-13  7.19E-13
 -7.1882E-01 -5.9069E-01 -5.9069E-01 -5.2814E-01 -4.8973E-01 -4.2914E-01
 -4.2914E-01 -2.9243E-01 -2.7914E-01 -2.5237E-01 -2.5237E-01 -1.6532E-01
 -1.4813E-01 -1.3619E-01 -1.3619E-01 -8.6128E-02  4.4270E-02  9.9951E-02
  9.9951E-02  1.0851E-01
 Non-SCF case, kpt   47 (  0.13333  0.26667  0.00000), residuals and eigenvalues=
  4.04E-13  9.08E-13  6.24E-13  1.83E-13  7.96E-13  1.93E-13  6.36E-13  1.16E-13
  8.88E-13  2.60E-13  3.19E-13  2.88E-13  5.45E-13  9.31E-13  3.68E-13  2.44E-13
  2.67E-13  9.87E-13  2.69E-11  6.53E-13
 -7.1832E-01 -5.9198E-01 -5.9198E-01 -5.2772E-01 -4.8934E-01 -4.2712E-01
 -4.2712E-01 -2.9415E-01 -2.7855E-01 -2.5252E-01 -2.5252E-01 -1.6693E-01
 -1.4914E-01 -1.3740E-01 -1.3740E-01 -8.5526E-02  4.4017E-02  1.0178E-01
  1.0178E-01  1.0918E-01
  prteigrs : nnsclo,ikpt=  100   47 max resid (incl. the buffer)=  2.68889E-11
 Non-SCF case, kpt   48 (  0.13623  0.27246  0.00000), residuals and eigenvalues=
  3.83E-13  1.29E-13  6.47E-13  1.76E-13  7.83E-13  1.89E-13  6.02E-13  1.07E-13
  8.94E-13  2.54E-13  3.09E-13  2.66E-13  5.26E-13  9.43E-13  3.81E-13  2.42E-13
  2.61E-13  4.08E-13  3.09E-11  5.82E-13
 -7.1781E-01 -5.9326E-01 -5.9326E-01 -5.2728E-01 -4.8893E-01 -4.2509E-01
 -4.2509E-01 -2.9590E-01 -2.7795E-01 -2.5267E-01 -2.5267E-01 -1.6856E-01
 -1.5016E-01 -1.3862E-01 -1.3862E-01 -8.4910E-02  4.3753E-02  1.0363E-01
  1.0363E-01  1.0988E-01
  prteigrs : nnsclo,ikpt=  100   48 max resid (incl. the buffer)=  3.08555E-11
 Non-SCF case, kpt   49 (  0.13913  0.27826  0.00000), residuals and eigenvalues=
  3.61E-13  1.38E-13  6.93E-13  1.70E-13  7.77E-13  1.84E-13  5.90E-13  1.01E-13
  8.97E-13  2.48E-13  2.98E-13  2.43E-13  5.03E-13  9.38E-13  4.09E-13  2.42E-13
  2.49E-13  5.39E-13  3.08E-11  5.42E-13
 -7.1730E-01 -5.9453E-01 -5.9453E-01 -5.2683E-01 -4.8852E-01 -4.2306E-01
 -4.2306E-01 -2.9766E-01 -2.7733E-01 -2.5283E-01 -2.5283E-01 -1.7020E-01
 -1.5121E-01 -1.3984E-01 -1.3984E-01 -8.4281E-02  4.3479E-02  1.0548E-01
  1.0548E-01  1.1058E-01
  prteigrs : nnsclo,ikpt=  100   49 max resid (incl. the buffer)=  3.08497E-11
 Non-SCF case, kpt   50 (  0.14203  0.28406  0.00000), residuals and eigenvalues=
  9.87E-13  1.50E-13  7.45E-13  1.77E-13  8.43E-13  1.74E-13  5.75E-13  1.08E-13
  9.74E-13  2.59E-13  2.78E-13  1.98E-13  4.64E-13  9.45E-13  4.31E-13  2.48E-13
  2.27E-13  8.64E-13  1.99E-11  3.38E-13
 -7.1677E-01 -5.9580E-01 -5.9580E-01 -5.2638E-01 -4.8810E-01 -4.2102E-01
 -4.2102E-01 -2.9944E-01 -2.7671E-01 -2.5298E-01 -2.5298E-01 -1.7187E-01
 -1.5227E-01 -1.4106E-01 -1.4106E-01 -8.3640E-02  4.3193E-02  1.0735E-01
  1.0735E-01  1.1131E-01
  prteigrs : nnsclo,ikpt=  100   50 max resid (incl. the buffer)=  1.99389E-11
 Non-SCF case, kpt   51 (  0.14493  0.28986  0.00000), residuals and eigenvalues=
  6.41E-13  2.10E-13  1.32E-13  8.06E-13  8.75E-13  3.23E-13  2.70E-13  9.80E-14
  3.41E-13  2.15E-13  7.67E-13  3.97E-13  3.64E-13  4.27E-13  9.04E-13  8.52E-13
  2.54E-13  4.08E-13  1.30E-12  3.32E-13
 -7.1623E-01 -5.9706E-01 -5.9706E-01 -5.2592E-01 -4.8768E-01 -4.1898E-01
 -4.1898E-01 -3.0124E-01 -2.7607E-01 -2.5313E-01 -2.5313E-01 -1.7355E-01
 -1.5334E-01 -1.4228E-01 -1.4228E-01 -8.2985E-02  4.2896E-02  1.0923E-01
  1.0923E-01  1.1204E-01
  prteigrs : nnsclo,ikpt=  100   51 max resid (incl. the buffer)=  1.30339E-12
 Non-SCF case, kpt   52 (  0.14783  0.29565  0.00000), residuals and eigenvalues=
  5.83E-13  2.53E-13  1.37E-13  7.77E-13  2.49E-13  3.02E-13  2.49E-13  5.41E-13
  3.79E-13  7.64E-13  2.30E-13  5.02E-13  6.63E-13  3.44E-13  2.21E-13  5.27E-13
  9.53E-13  4.96E-13  1.90E-13  3.39E-13
 -7.1568E-01 -5.9831E-01 -5.9831E-01 -5.2544E-01 -4.8725E-01 -4.1693E-01
 -4.1693E-01 -3.0305E-01 -2.7541E-01 -2.5329E-01 -2.5329E-01 -1.7524E-01
 -1.5444E-01 -1.4350E-01 -1.4350E-01 -8.2317E-02  4.2588E-02  1.1111E-01
  1.1111E-01  1.1280E-01
 Non-SCF case, kpt   53 (  0.15072  0.30145  0.00000), residuals and eigenvalues=
  5.89E-13  2.45E-13  6.30E-13  6.93E-13  3.09E-13  1.62E-13  1.10E-13  2.60E-13
  1.59E-13  3.50E-13  1.44E-13  5.32E-13  8.75E-13  1.58E-13  8.32E-13  3.88E-13
  7.48E-13  6.53E-13  3.71E-12  6.87E-13
 -7.1512E-01 -5.9955E-01 -5.9955E-01 -5.2496E-01 -4.8681E-01 -4.1488E-01
 -4.1488E-01 -3.0488E-01 -2.7475E-01 -2.5345E-01 -2.5345E-01 -1.7696E-01
 -1.5555E-01 -1.4471E-01 -1.4471E-01 -8.1636E-02  4.2267E-02  1.1300E-01
  1.1300E-01  1.1356E-01
  prteigrs : nnsclo,ikpt=  100   53 max resid (incl. the buffer)=  3.70706E-12
 Non-SCF case, kpt   54 (  0.15362  0.30725  0.00000), residuals and eigenvalues=
  5.48E-13  2.63E-13  6.81E-13  6.72E-13  3.06E-13  1.56E-13  1.08E-13  2.45E-13
  1.57E-13  3.41E-13  1.44E-13  4.87E-13  7.52E-13  1.53E-13  7.83E-13  3.99E-13
  6.70E-13  7.46E-13  6.37E-12  1.11E-10
 -7.1454E-01 -6.0078E-01 -6.0078E-01 -5.2447E-01 -4.8637E-01 -4.1282E-01
 -4.1282E-01 -3.0673E-01 -2.7407E-01 -2.5360E-01 -2.5360E-01 -1.7869E-01
 -1.5668E-01 -1.4593E-01 -1.4593E-01 -8.0942E-02  4.1934E-02  1.1435E-01
  1.1490E-01  1.1490E-01
  prteigrs : nnsclo,ikpt=  100   54 max resid (incl. the buffer)=  1.10950E-10
 Non-SCF case, kpt   55 (  0.15652  0.31304  0.00000), residuals and eigenvalues=
  6.46E-13  1.91E-13  1.51E-13  9.45E-13  1.28E-13  1.74E-13  2.15E-13  5.24E-13
  3.85E-13  5.36E-13  2.55E-13  5.04E-13  9.58E-13  1.38E-13  6.33E-13  2.54E-13
  2.02E-13  9.97E-13  1.03E-11  1.73E-09
 -7.1396E-01 -6.0200E-01 -6.0200E-01 -5.2397E-01 -4.8592E-01 -4.1076E-01
 -4.1076E-01 -3.0858E-01 -2.7338E-01 -2.5376E-01 -2.5376E-01 -1.8043E-01
 -1.5782E-01 -1.4715E-01 -1.4715E-01 -8.0235E-02  4.1588E-02  1.1514E-01
  1.1681E-01  1.1681E-01
  prteigrs : nnsclo,ikpt=  100   55 max resid (incl. the buffer)=  1.72532E-09
 Non-SCF case, kpt   56 (  0.15942  0.31884  0.00000), residuals and eigenvalues=
  8.91E-13  4.22E-13  3.93E-13  5.03E-13  1.70E-13  8.74E-13  7.07E-13  8.02E-13
  6.11E-13  7.81E-13  3.83E-13  1.89E-13  2.96E-13  5.05E-13  3.40E-13  3.87E-13
  3.88E-13  9.49E-13  6.28E-11  6.55E-10
 -7.1337E-01 -6.0322E-01 -6.0322E-01 -5.2345E-01 -4.8546E-01 -4.0869E-01
 -4.0869E-01 -3.1045E-01 -2.7268E-01 -2.5392E-01 -2.5392E-01 -1.8219E-01
 -1.5898E-01 -1.4836E-01 -1.4836E-01 -7.9515E-02  4.1229E-02  1.1595E-01
  1.1872E-01  1.1872E-01
  prteigrs : nnsclo,ikpt=  100   56 max resid (incl. the buffer)=  6.54860E-10
 Non-SCF case, kpt   57 (  0.16232  0.32464  0.00000), residuals and eigenvalues=
  7.51E-13  8.26E-13  1.98E-13  7.27E-13  1.80E-13  2.27E-13  1.79E-13  1.40E-13
  2.23E-13  3.05E-13  3.80E-13  2.15E-13  8.36E-13  4.28E-13  6.42E-13  1.96E-13
  6.45E-13  9.31E-13  1.87E-12  4.89E-12
 -7.1276E-01 -6.0442E-01 -6.0442E-01 -5.2293E-01 -4.8500E-01 -4.0663E-01
 -4.0663E-01 -3.1234E-01 -2.7196E-01 -2.5407E-01 -2.5407E-01 -1.8397E-01
 -1.6016E-01 -1.4958E-01 -1.4958E-01 -7.8781E-02  4.0857E-02  1.1678E-01
  1.2063E-01  1.2063E-01
  prteigrs : nnsclo,ikpt=  100   57 max resid (incl. the buffer)=  4.88734E-12
 Non-SCF case, kpt   58 (  0.16522  0.33043  0.00000), residuals and eigenvalues=
  9.94E-13  1.46E-13  6.51E-13  1.68E-13  2.92E-13  6.02E-13  7.06E-13  3.13E-13
  2.78E-13  1.32E-13  6.14E-13  7.06E-13  5.30E-13  5.95E-13  9.03E-13  1.68E-13
  5.41E-13  2.80E-13  6.83E-12  1.64E-10
 -7.1215E-01 -6.0562E-01 -6.0562E-01 -5.2240E-01 -4.8453E-01 -4.0455E-01
 -4.0455E-01 -3.1423E-01 -2.7123E-01 -2.5423E-01 -2.5423E-01 -1.8576E-01
 -1.6135E-01 -1.5079E-01 -1.5079E-01 -7.8035E-02  4.0471E-02  1.1762E-01
  1.2256E-01  1.2256E-01
  prteigrs : nnsclo,ikpt=  100   58 max resid (incl. the buffer)=  1.64059E-10
 Non-SCF case, kpt   59 (  0.16812  0.33623  0.00000), residuals and eigenvalues=
  9.29E-13  1.57E-13  7.03E-13  1.66E-13  2.91E-13  5.97E-13  6.79E-13  2.92E-13
  2.73E-13  1.28E-13  6.10E-13  5.91E-13  4.67E-13  5.97E-13  8.72E-13  1.69E-13
  5.35E-13  3.14E-13  6.37E-12  1.71E-10
 -7.1152E-01 -6.0681E-01 -6.0681E-01 -5.2187E-01 -4.8406E-01 -4.0248E-01
 -4.0248E-01 -3.1613E-01 -2.7049E-01 -2.5439E-01 -2.5439E-01 -1.8756E-01
 -1.6256E-01 -1.5199E-01 -1.5199E-01 -7.7276E-02  4.0071E-02  1.1848E-01
  1.2448E-01  1.2448E-01
  prteigrs : nnsclo,ikpt=  100   59 max resid (incl. the buffer)=  1.70613E-10
 Non-SCF case, kpt   60 (  0.17101  0.34203  0.00000), residuals and eigenvalues=
  3.55E-13  2.70E-13  3.43E-13  7.92E-13  6.65E-13  2.13E-13  5.94E-13  1.76E-13
  4.49E-13  2.09E-13  7.17E-13  3.13E-13  5.89E-13  4.01E-13  7.37E-13  2.81E-13
  9.39E-13  9.54E-13  5.89E-12  3.62E-09
 -7.1088E-01 -6.0799E-01 -6.0799E-01 -5.2132E-01 -4.8358E-01 -4.0040E-01
 -4.0040E-01 -3.1805E-01 -2.6974E-01 -2.5454E-01 -2.5454E-01 -1.8937E-01
 -1.6378E-01 -1.5320E-01 -1.5320E-01 -7.6504E-02  3.9657E-02  1.1935E-01
  1.2641E-01  1.2641E-01
  prteigrs : nnsclo,ikpt=  100   60 max resid (incl. the buffer)=  3.62101E-09
 Non-SCF case, kpt   61 (  0.17391  0.34783  0.00000), residuals and eigenvalues=
  8.50E-13  7.88E-13  5.66E-13  3.42E-13  1.97E-13  6.01E-13  2.70E-13  1.06E-13
  1.39E-13  2.54E-13  7.68E-14  3.21E-13  5.85E-13  8.75E-13  3.47E-13  2.63E-13
  7.04E-13  9.31E-13  1.29E-10  2.51E-09
 -7.1024E-01 -6.0916E-01 -6.0916E-01 -5.2076E-01 -4.8310E-01 -3.9832E-01
 -3.9832E-01 -3.1997E-01 -2.6897E-01 -2.5470E-01 -2.5470E-01 -1.9119E-01
 -1.6502E-01 -1.5440E-01 -1.5440E-01 -7.5719E-02  3.9228E-02  1.2024E-01
  1.2834E-01  1.2834E-01
  prteigrs : nnsclo,ikpt=  100   61 max resid (incl. the buffer)=  2.51287E-09
 Non-SCF case, kpt   62 (  0.17681  0.35362  0.00000), residuals and eigenvalues=
  3.63E-13  7.16E-13  2.81E-13  1.56E-13  1.28E-13  1.12E-13  2.25E-13  3.28E-13
  1.14E-13  7.95E-13  1.92E-13  1.31E-13  1.67E-13  2.05E-13  2.57E-13  3.20E-13
  5.37E-13  2.77E-13  1.33E-10  1.22E-09
 -7.0958E-01 -6.1032E-01 -6.1032E-01 -5.2019E-01 -4.8261E-01 -3.9623E-01
 -3.9623E-01 -3.2190E-01 -2.6819E-01 -2.5485E-01 -2.5485E-01 -1.9303E-01
 -1.6627E-01 -1.5559E-01 -1.5559E-01 -7.4921E-02  3.8784E-02  1.2114E-01
  1.3027E-01  1.3027E-01
  prteigrs : nnsclo,ikpt=  100   62 max resid (incl. the buffer)=  1.21818E-09
 Non-SCF case, kpt   63 (  0.17971  0.35942  0.00000), residuals and eigenvalues=
  3.39E-13  7.67E-13  3.03E-13  1.52E-13  1.31E-13  1.12E-13  2.14E-13  3.14E-13
  1.13E-13  7.66E-13  1.80E-13  9.70E-13  1.55E-13  2.02E-13  2.23E-13  3.07E-13
  5.08E-13  2.59E-13  1.49E-10  1.48E-09
 -7.0891E-01 -6.1147E-01 -6.1147E-01 -5.1962E-01 -4.8212E-01 -3.9415E-01
 -3.9415E-01 -3.2384E-01 -2.6740E-01 -2.5501E-01 -2.5501E-01 -1.9487E-01
 -1.6753E-01 -1.5678E-01 -1.5678E-01 -7.4110E-02  3.8325E-02  1.2205E-01
  1.3220E-01  1.3220E-01
  prteigrs : nnsclo,ikpt=  100   63 max resid (incl. the buffer)=  1.47948E-09
 Non-SCF case, kpt   64 (  0.18261  0.36522  0.00000), residuals and eigenvalues=
  7.57E-13  9.60E-13  4.22E-13  1.51E-13  1.87E-13  7.18E-13  6.22E-13  3.35E-13
  8.06E-13  7.91E-13  3.45E-13  4.37E-13  8.35E-13  5.94E-13  2.13E-13  5.31E-13
  6.07E-13  6.42E-13  5.06E-11  5.66E-09
 -7.0823E-01 -6.1261E-01 -6.1261E-01 -5.1903E-01 -4.8162E-01 -3.9206E-01
 -3.9206E-01 -3.2578E-01 -2.6660E-01 -2.5516E-01 -2.5516E-01 -1.9673E-01
 -1.6881E-01 -1.5797E-01 -1.5797E-01 -7.3286E-02  3.7850E-02  1.2298E-01
  1.3413E-01  1.3413E-01
  prteigrs : nnsclo,ikpt=  100   64 max resid (incl. the buffer)=  5.66254E-09
 Non-SCF case, kpt   65 (  0.18551  0.37101  0.00000), residuals and eigenvalues=
  6.98E-13  2.11E-13  4.53E-13  1.45E-13  1.79E-13  6.91E-13  6.09E-13  3.27E-13
  7.96E-13  7.51E-13  3.09E-13  3.66E-13  7.17E-13  5.71E-13  2.02E-13  5.26E-13
  4.89E-13  6.93E-13  7.02E-11  6.24E-09
 -7.0754E-01 -6.1375E-01 -6.1375E-01 -5.1844E-01 -4.8112E-01 -3.8997E-01
 -3.8997E-01 -3.2773E-01 -2.6579E-01 -2.5531E-01 -2.5531E-01 -1.9859E-01
 -1.7011E-01 -1.5915E-01 -1.5915E-01 -7.2449E-02  3.7360E-02  1.2393E-01
  1.3606E-01  1.3606E-01
  prteigrs : nnsclo,ikpt=  100   65 max resid (incl. the buffer)=  6.24118E-09
 Non-SCF case, kpt   66 (  0.18841  0.37681  0.00000), residuals and eigenvalues=
  5.70E-13  8.36E-13  8.44E-13  7.79E-13  3.22E-13  4.89E-13  2.59E-13  1.71E-13
  1.63E-13  4.51E-13  4.81E-13  8.53E-13  1.62E-13  8.46E-13  2.00E-13  4.91E-13
  2.77E-13  5.11E-13  2.02E-10  4.79E-09
 -7.0684E-01 -6.1487E-01 -6.1487E-01 -5.1783E-01 -4.8062E-01 -3.8789E-01
 -3.8789E-01 -3.2968E-01 -2.6496E-01 -2.5546E-01 -2.5546E-01 -2.0047E-01
 -1.7142E-01 -1.6033E-01 -1.6033E-01 -7.1599E-02  3.6853E-02  1.2489E-01
  1.3799E-01  1.3799E-01
  prteigrs : nnsclo,ikpt=  100   66 max resid (incl. the buffer)=  4.79104E-09
 Non-SCF case, kpt   67 (  0.19130  0.38261  0.00000), residuals and eigenvalues=
  9.87E-13  2.47E-13  4.82E-13  3.69E-13  3.61E-13  7.64E-13  7.28E-13  1.02E-13
  2.17E-13  2.21E-13  7.70E-13  5.65E-13  3.55E-13  3.83E-13  5.09E-13  7.45E-13
  1.54E-13  5.68E-13  5.06E-10  2.45E-08
 -7.0613E-01 -6.1599E-01 -6.1599E-01 -5.1722E-01 -4.8012E-01 -3.8580E-01
 -3.8580E-01 -3.3164E-01 -2.6412E-01 -2.5560E-01 -2.5560E-01 -2.0235E-01
 -1.7274E-01 -1.6150E-01 -1.6150E-01 -7.0736E-02  3.6330E-02  1.2587E-01
  1.3992E-01  1.3992E-01
  prteigrs : nnsclo,ikpt=  100   67 max resid (incl. the buffer)=  2.45113E-08
 Non-SCF case, kpt   68 (  0.19420  0.38841  0.00000), residuals and eigenvalues=
  5.96E-13  6.16E-13  7.99E-13  1.67E-13  1.06E-13  4.45E-13  1.60E-13  2.27E-13
  3.72E-13  4.09E-13  4.06E-13  1.97E-13  4.84E-13  3.47E-13  4.77E-13  3.31E-13
  1.63E-13  2.24E-13  5.00E-10  4.37E-09
 -7.0540E-01 -6.1709E-01 -6.1709E-01 -5.1660E-01 -4.7961E-01 -3.8371E-01
 -3.8371E-01 -3.3359E-01 -2.6326E-01 -2.5575E-01 -2.5575E-01 -2.0425E-01
 -1.7407E-01 -1.6266E-01 -1.6266E-01 -6.9861E-02  3.5790E-02  1.2686E-01
  1.4184E-01  1.4184E-01
  prteigrs : nnsclo,ikpt=  100   68 max resid (incl. the buffer)=  4.37133E-09
 Non-SCF case, kpt   69 (  0.19710  0.39420  0.00000), residuals and eigenvalues=
  9.26E-13  3.38E-13  6.81E-13  3.05E-13  1.66E-13  4.16E-13  2.60E-13  9.93E-13
  5.75E-13  1.59E-13  2.89E-13  2.33E-13  3.17E-13  2.27E-13  6.39E-13  1.54E-13
  1.46E-13  2.51E-13  1.82E-10  1.70E-08
 -7.0467E-01 -6.1818E-01 -6.1818E-01 -5.1596E-01 -4.7910E-01 -3.8162E-01
 -3.8162E-01 -3.3556E-01 -2.6240E-01 -2.5589E-01 -2.5589E-01 -2.0615E-01
 -1.7542E-01 -1.6382E-01 -1.6382E-01 -6.8972E-02  3.5233E-02  1.2786E-01
  1.4377E-01  1.4377E-01
  prteigrs : nnsclo,ikpt=  100   69 max resid (incl. the buffer)=  1.70497E-08
 Non-SCF case, kpt   70 (  0.20000  0.40000  0.00000), residuals and eigenvalues=
  4.79E-13  5.01E-13  3.09E-13  3.00E-13  4.84E-13  4.68E-13  2.92E-13  1.45E-13
  6.57E-13  3.52E-13  2.72E-13  2.93E-13  1.71E-13  5.36E-13  9.89E-13  3.52E-13
  7.71E-13  6.84E-13  1.53E-10  3.29E-09
 -7.0393E-01 -6.1927E-01 -6.1927E-01 -5.1532E-01 -4.7859E-01 -3.7953E-01
 -3.7953E-01 -3.3752E-01 -2.6152E-01 -2.5603E-01 -2.5603E-01 -2.0805E-01
 -1.7678E-01 -1.6497E-01 -1.6497E-01 -6.8071E-02  3.4659E-02  1.2888E-01
  1.4569E-01  1.4569E-01
  prteigrs : nnsclo,ikpt=  100   70 max resid (incl. the buffer)=  3.28557E-09
 Non-SCF case, kpt   71 (  0.20290  0.40580  0.00000), residuals and eigenvalues=
  4.36E-13  5.16E-13  3.13E-13  2.92E-13  4.90E-13  2.52E-13  5.10E-13  1.41E-13
  6.66E-13  3.18E-13  2.44E-13  9.92E-13  1.50E-13  5.24E-13  9.91E-13  3.32E-13
  6.39E-13  7.59E-13  1.96E-10  3.14E-09
 -7.0317E-01 -6.2035E-01 -6.2035E-01 -5.1467E-01 -4.7808E-01 -3.7744E-01
 -3.7744E-01 -3.3948E-01 -2.6063E-01 -2.5616E-01 -2.5616E-01 -2.0997E-01
 -1.7815E-01 -1.6612E-01 -1.6612E-01 -6.7157E-02  3.4067E-02  1.2992E-01
  1.4760E-01  1.4760E-01
  prteigrs : nnsclo,ikpt=  100   71 max resid (incl. the buffer)=  3.13916E-09
 Non-SCF case, kpt   72 (  0.20580  0.41159  0.00000), residuals and eigenvalues=
  5.50E-13  6.03E-13  5.47E-13  3.70E-13  7.58E-13  5.11E-13  3.95E-13  1.37E-13
  7.03E-13  4.05E-13  6.77E-13  4.24E-13  3.41E-13  5.02E-13  2.24E-13  6.99E-13
  6.44E-13  6.34E-13  1.12E-09  3.45E-09
 -7.0241E-01 -6.2141E-01 -6.2141E-01 -5.1401E-01 -4.7756E-01 -3.7536E-01
 -3.7536E-01 -3.4144E-01 -2.5973E-01 -2.5629E-01 -2.5629E-01 -2.1189E-01
 -1.7953E-01 -1.6726E-01 -1.6726E-01 -6.6230E-02  3.3457E-02  1.3097E-01
  1.4951E-01  1.4951E-01
  prteigrs : nnsclo,ikpt=  100   72 max resid (incl. the buffer)=  3.44782E-09
 Non-SCF case, kpt   73 (  0.20870  0.41739  0.00000), residuals and eigenvalues=
  6.79E-13  1.96E-13  8.71E-13  6.48E-13  8.16E-13  1.78E-13  3.12E-13  1.80E-13
  8.74E-13  3.35E-13  2.79E-13  5.81E-13  5.66E-13  4.79E-13  3.06E-13  1.58E-13
  2.06E-13  7.09E-13  1.79E-10  1.27E-09
 -7.0163E-01 -6.2247E-01 -6.2247E-01 -5.1334E-01 -4.7705E-01 -3.7327E-01
 -3.7327E-01 -3.4339E-01 -2.5882E-01 -2.5642E-01 -2.5642E-01 -2.1382E-01
 -1.8093E-01 -1.6839E-01 -1.6839E-01 -6.5290E-02  3.2829E-02  1.3203E-01
  1.5142E-01  1.5142E-01
  prteigrs : nnsclo,ikpt=  100   73 max resid (incl. the buffer)=  1.26643E-09
 Non-SCF case, kpt   74 (  0.21159  0.42319  0.00000), residuals and eigenvalues=
  6.11E-13  1.91E-13  9.29E-13  6.34E-13  8.16E-13  1.68E-13  2.88E-13  1.84E-13
  8.28E-13  3.36E-13  2.55E-13  5.13E-13  5.15E-13  4.74E-13  2.98E-13  1.57E-13
  1.88E-13  8.52E-13  2.65E-10  1.70E-09
 -7.0085E-01 -6.2352E-01 -6.2352E-01 -5.1266E-01 -4.7654E-01 -3.7119E-01
 -3.7119E-01 -3.4535E-01 -2.5789E-01 -2.5654E-01 -2.5654E-01 -2.1575E-01
 -1.8234E-01 -1.6951E-01 -1.6951E-01 -6.4337E-02  3.2183E-02  1.3311E-01
  1.5332E-01  1.5332E-01
[...]
                       6.66666667E-02  1.33333333E-01  0.00000000E+00
                       6.95652174E-02  1.39130435E-01  0.00000000E+00
                       7.24637681E-02  1.44927536E-01  0.00000000E+00
                       7.53623188E-02  1.50724638E-01  0.00000000E+00
                       7.82608696E-02  1.56521739E-01  0.00000000E+00
                       8.11594203E-02  1.62318841E-01  0.00000000E+00
                       8.40579710E-02  1.68115942E-01  0.00000000E+00
                       8.69565217E-02  1.73913043E-01  0.00000000E+00
                       8.98550725E-02  1.79710145E-01  0.00000000E+00
                       9.27536232E-02  1.85507246E-01  0.00000000E+00
                       9.56521739E-02  1.91304348E-01  0.00000000E+00
                       9.85507246E-02  1.97101449E-01  0.00000000E+00
                       1.01449275E-01  2.02898551E-01  0.00000000E+00
                       1.04347826E-01  2.08695652E-01  0.00000000E+00
                       1.07246377E-01  2.14492754E-01  0.00000000E+00
                       1.10144928E-01  2.20289855E-01  0.00000000E+00
                       1.13043478E-01  2.26086957E-01  0.00000000E+00
                       1.15942029E-01  2.31884058E-01  0.00000000E+00
                       1.18840580E-01  2.37681159E-01  0.00000000E+00
                       1.21739130E-01  2.43478261E-01  0.00000000E+00
                       1.24637681E-01  2.49275362E-01  0.00000000E+00
                       1.27536232E-01  2.55072464E-01  0.00000000E+00
                       1.30434783E-01  2.60869565E-01  0.00000000E+00
                       1.33333333E-01  2.66666667E-01  0.00000000E+00
                       1.36231884E-01  2.72463768E-01  0.00000000E+00
                       1.39130435E-01  2.78260870E-01  0.00000000E+00
                       1.42028986E-01  2.84057971E-01  0.00000000E+00
                       outvar_i_n : Printing only first  50 k-points.
           kptopt1          1
           kptopt2         -3
         kptrlatt       14    0    0      0   14    0      0    0    1
          kptrlen1     1.30557160E+02
          kptrlen2     3.00000000E+01
P           mkmem1          4
P           mkmem2         62
            natom           8
           natsph1       8
           natsph2       8
            nband1         17
            nband2         20
           nbdbuf1          0
           nbdbuf2          2
           ndtset           2
            ngfft          40      40      60
          ngfftdg          60      60      96
             nkpt1         24
             nkpt2        369
            nstep         100
             nsym          96
           ntypat           1
              occ      2.000000  2.000000  2.000000  2.000000  2.000000  2.000000
                       2.000000  2.000000  2.000000  2.000000  2.000000  2.000000
                       2.000000  2.000000  2.000000  2.000000  0.000000
        pawecutdg      5.00000000E+01 Hartree
        pawfatbnd           1
          pawovlp     -1.0000000000E+00
            rprim      5.0000000000E-01  8.6602540500E-01  0.0000000000E+00
                      -5.0000000000E-01  8.6602540500E-01  0.0000000000E+00
                       0.0000000000E+00  0.0000000000E+00  1.0000000000E+00
           shiftk1     0.00000000E+00  0.00000000E+00  5.00000000E-01
           shiftk2     5.00000000E-01  5.00000000E-01  5.00000000E-01
           strten1     3.4581494486E-06  3.4581469916E-06 -5.0545254082E-06
                       0.0000000000E+00  0.0000000000E+00  0.0000000000E+00
           symrel      1  0  0   0  1  0   0  0  1       1  0  0   0  1  0   0  0  1
                       1  0  0   0  1  0   0  0  1       1  0  0   0  1  0   0  0  1
                      -1  0  0   0 -1  0   0  0 -1      -1  0  0   0 -1  0   0  0 -1
                      -1  0  0   0 -1  0   0  0 -1      -1  0  0   0 -1  0   0  0 -1
                      -1  1  0   0  1  0   0  0  1      -1  1  0   0  1  0   0  0  1
                      -1  1  0   0  1  0   0  0  1      -1  1  0   0  1  0   0  0  1
                       1 -1  0   0 -1  0   0  0 -1       1 -1  0   0 -1  0   0  0 -1
                       1 -1  0   0 -1  0   0  0 -1       1 -1  0   0 -1  0   0  0 -1
                       0  1  0  -1  1  0   0  0  1       0  1  0  -1  1  0   0  0  1
                       0  1  0  -1  1  0   0  0  1       0  1  0  -1  1  0   0  0  1
                       0 -1  0   1 -1  0   0  0 -1       0 -1  0   1 -1  0   0  0 -1
                       0 -1  0   1 -1  0   0  0 -1       0 -1  0   1 -1  0   0  0 -1
                      -1  0  0  -1  1  0   0  0  1      -1  0  0  -1  1  0   0  0  1
                      -1  0  0  -1  1  0   0  0  1      -1  0  0  -1  1  0   0  0  1
                       1  0  0   1 -1  0   0  0 -1       1  0  0   1 -1  0   0  0 -1
                       1  0  0   1 -1  0   0  0 -1       1  0  0   1 -1  0   0  0 -1
                      -1  1  0  -1  0  0   0  0  1      -1  1  0  -1  0  0   0  0  1
                      -1  1  0  -1  0  0   0  0  1      -1  1  0  -1  0  0   0  0  1
                       1 -1  0   1  0  0   0  0 -1       1 -1  0   1  0  0   0  0 -1
                       1 -1  0   1  0  0   0  0 -1       1 -1  0   1  0  0   0  0 -1
                       0 -1  0  -1  0  0   0  0  1       0 -1  0  -1  0  0   0  0  1
                       0 -1  0  -1  0  0   0  0  1       0 -1  0  -1  0  0   0  0  1
                       0  1  0   1  0  0   0  0 -1       0  1  0   1  0  0   0  0 -1
                       0  1  0   1  0  0   0  0 -1       0  1  0   1  0  0   0  0 -1
                      -1  0  0   0 -1  0   0  0  1      -1  0  0   0 -1  0   0  0  1
                      -1  0  0   0 -1  0   0  0  1      -1  0  0   0 -1  0   0  0  1
                       1  0  0   0  1  0   0  0 -1       1  0  0   0  1  0   0  0 -1
                       1  0  0   0  1  0   0  0 -1       1  0  0   0  1  0   0  0 -1
                       1 -1  0   0 -1  0   0  0  1       1 -1  0   0 -1  0   0  0  1
                       1 -1  0   0 -1  0   0  0  1       1 -1  0   0 -1  0   0  0  1
                      -1  1  0   0  1  0   0  0 -1      -1  1  0   0  1  0   0  0 -1
                      -1  1  0   0  1  0   0  0 -1      -1  1  0   0  1  0   0  0 -1
                       0 -1  0   1 -1  0   0  0  1       0 -1  0   1 -1  0   0  0  1
                       0 -1  0   1 -1  0   0  0  1       0 -1  0   1 -1  0   0  0  1
                       0  1  0  -1  1  0   0  0 -1       0  1  0  -1  1  0   0  0 -1
                       0  1  0  -1  1  0   0  0 -1       0  1  0  -1  1  0   0  0 -1
                       1  0  0   1 -1  0   0  0  1       1  0  0   1 -1  0   0  0  1
                       1  0  0   1 -1  0   0  0  1       1  0  0   1 -1  0   0  0  1
                      -1  0  0  -1  1  0   0  0 -1      -1  0  0  -1  1  0   0  0 -1
                      -1  0  0  -1  1  0   0  0 -1      -1  0  0  -1  1  0   0  0 -1
                       1 -1  0   1  0  0   0  0  1       1 -1  0   1  0  0   0  0  1
                       1 -1  0   1  0  0   0  0  1       1 -1  0   1  0  0   0  0  1
                      -1  1  0  -1  0  0   0  0 -1      -1  1  0  -1  0  0   0  0 -1
                      -1  1  0  -1  0  0   0  0 -1      -1  1  0  -1  0  0   0  0 -1
                       0  1  0   1  0  0   0  0  1       0  1  0   1  0  0   0  0  1
                       0  1  0   1  0  0   0  0  1       0  1  0   1  0  0   0  0  1
                       0 -1  0  -1  0  0   0  0 -1       0 -1  0  -1  0  0   0  0 -1
                       0 -1  0  -1  0  0   0  0 -1       0 -1  0  -1  0  0   0  0 -1
            tnons      0.0000000  0.0000000  0.0000000     0.5000000 -0.0000000  0.0000000
                      -0.0000000  0.5000000  0.0000000     0.5000000  0.5000000  0.0000000
                       0.5000000  0.5000000 -0.0000000     0.0000000  0.5000000 -0.0000000
                       0.5000000  0.0000000 -0.0000000     0.0000000  0.0000000 -0.0000000
                       0.5000000  0.0000000  0.0000000     0.0000000 -0.0000000  0.0000000
                       0.5000000  0.5000000  0.0000000     0.0000000  0.5000000  0.0000000
                       0.0000000  0.5000000 -0.0000000     0.5000000  0.5000000 -0.0000000
                      -0.0000000  0.0000000 -0.0000000     0.5000000  0.0000000 -0.0000000
                       0.5000000  0.0000000  0.0000000     0.0000000 -0.0000000  0.0000000
                       0.5000000  0.5000000  0.0000000     0.0000000  0.5000000  0.0000000
                       0.0000000  0.5000000 -0.0000000     0.5000000  0.5000000 -0.0000000
                      -0.0000000  0.0000000 -0.0000000     0.5000000  0.0000000 -0.0000000
                       0.5000000  0.0000000  0.0000000     0.0000000 -0.0000000  0.0000000
                       0.5000000  0.5000000  0.0000000     0.0000000  0.5000000  0.0000000
                       0.0000000  0.5000000 -0.0000000     0.5000000  0.5000000 -0.0000000
                      -0.0000000  0.0000000 -0.0000000     0.5000000  0.0000000 -0.0000000
                       0.5000000  0.0000000  0.0000000     0.0000000 -0.0000000  0.0000000
                       0.5000000  0.5000000  0.0000000     0.0000000  0.5000000  0.0000000
                       0.0000000  0.5000000 -0.0000000     0.5000000  0.5000000 -0.0000000
                      -0.0000000  0.0000000 -0.0000000     0.5000000  0.0000000 -0.0000000
                       0.5000000  0.5000000  0.0000000     0.0000000  0.5000000  0.0000000
                       0.5000000  0.0000000  0.0000000     0.0000000  0.0000000  0.0000000
                       0.0000000  0.0000000 -0.0000000     0.5000000 -0.0000000 -0.0000000
                      -0.0000000  0.5000000 -0.0000000     0.5000000  0.5000000 -0.0000000
                       0.5000000  0.5000000  0.0000000     0.0000000  0.5000000  0.0000000
                       0.5000000  0.0000000  0.0000000     0.0000000  0.0000000  0.0000000
                       0.0000000  0.0000000 -0.0000000     0.5000000 -0.0000000 -0.0000000
                      -0.0000000  0.5000000 -0.0000000     0.5000000  0.5000000 -0.0000000
                       0.0000000  0.5000000  0.0000000     0.5000000  0.5000000  0.0000000
                      -0.0000000  0.0000000  0.0000000     0.5000000  0.0000000  0.0000000
                       0.5000000  0.0000000 -0.0000000     0.0000000 -0.0000000 -0.0000000
                       0.5000000  0.5000000 -0.0000000     0.0000000  0.5000000 -0.0000000
                       0.0000000  0.5000000  0.0000000     0.5000000  0.5000000  0.0000000
                      -0.0000000  0.0000000  0.0000000     0.5000000  0.0000000  0.0000000
                       0.5000000  0.0000000 -0.0000000     0.0000000 -0.0000000 -0.0000000
                       0.5000000  0.5000000 -0.0000000     0.0000000  0.5000000 -0.0000000
                       0.0000000  0.5000000  0.0000000     0.5000000  0.5000000  0.0000000
                      -0.0000000  0.0000000  0.0000000     0.5000000  0.0000000  0.0000000
                       0.5000000  0.0000000 -0.0000000     0.0000000 -0.0000000 -0.0000000
                       0.5000000  0.5000000 -0.0000000     0.0000000  0.5000000 -0.0000000
                       0.0000000  0.5000000  0.0000000     0.5000000  0.5000000  0.0000000
                      -0.0000000  0.0000000  0.0000000     0.5000000  0.0000000  0.0000000
                       0.5000000  0.0000000 -0.0000000     0.0000000 -0.0000000 -0.0000000
                       0.5000000  0.5000000 -0.0000000     0.0000000  0.5000000 -0.0000000
                       0.0000000  0.0000000  0.0000000     0.5000000 -0.0000000  0.0000000
                      -0.0000000  0.5000000  0.0000000     0.5000000  0.5000000  0.0000000
                       0.5000000  0.5000000 -0.0000000     0.0000000  0.5000000 -0.0000000
                       0.5000000  0.0000000 -0.0000000     0.0000000  0.0000000 -0.0000000
           toldfe1     1.00000000E-10 Hartree
           toldfe2     0.00000000E+00 Hartree
           tolwfr1     0.00000000E+00
           tolwfr2     1.00000000E-12
            typat      1  1  1  1  1  1  1  1
           useylm           1
              wtk1       0.00510    0.03061    0.03061    0.03061    0.03061    0.03061
                         0.03061    0.01531    0.03061    0.06122    0.06122    0.06122
                         0.06122    0.06122    0.03061    0.06122    0.06122    0.06122
                         0.03061    0.03061    0.06122    0.06122    0.03061    0.03061
              wtk2       1.00000    1.00000    1.00000    1.00000    1.00000    1.00000
                         1.00000    1.00000    1.00000    1.00000    1.00000    1.00000
                         1.00000    1.00000    1.00000    1.00000    1.00000    1.00000
                         1.00000    1.00000    1.00000    1.00000    1.00000    1.00000
                         1.00000    1.00000    1.00000    1.00000    1.00000    1.00000
                         1.00000    1.00000    1.00000    1.00000    1.00000    1.00000
                         1.00000    1.00000    1.00000    1.00000    1.00000    1.00000
                         1.00000    1.00000    1.00000    1.00000    1.00000    1.00000
                         1.00000    1.00000
                       outvars : Printing only first  50 k-points.
           xangst      1.9501179939E-17  1.4245679403E+00  1.6345913345E-47
                      -1.0124453182E-16  2.8491358805E+00  0.0000000000E+00
                       1.2337120239E+00  3.5614198506E+00  3.2691826689E-47
                       1.2337120239E+00  4.9859877908E+00  2.1794551126E-47
                      -1.2337120239E+00  3.5614198506E+00  4.3589102253E-47
                      -1.2337120239E+00  4.9859877908E+00  2.3610763720E-47
                      -2.6348290894E-16  5.6982717609E+00  2.9059401502E-47
                       1.2114237725E-15  7.1228397012E+00  7.2648503754E-48
            xcart      3.6851889352E-17  2.6920432648E+00  3.0889299613E-47
                      -1.9132443759E-16  5.3840865295E+00  0.0000000000E+00
                       2.3313778520E+00  6.7301081619E+00  6.1778599227E-47
                       2.3313778521E+00  9.4221514266E+00  4.1185732818E-47
                      -2.3313778520E+00  6.7301081619E+00  8.2371465636E-47
                      -2.3313778521E+00  9.4221514266E+00  4.4617877219E-47
                      -4.9791053859E-16  1.0768173059E+01  5.4914310424E-47
                       2.2892591609E-15  1.3460216324E+01  1.3728577606E-47
             xred      1.6666666667E-01  1.6666666667E-01  2.0526832974E-48
                       3.3333333334E-01  3.3333333334E-01  0.0000000000E+00
                       6.6666666667E-01  1.6666666667E-01  4.1053665947E-48
                       8.3333333334E-01  3.3333333334E-01  2.7369110631E-48
                       1.6666666667E-01  6.6666666667E-01  5.4738221263E-48
                       3.3333333334E-01  8.3333333334E-01  2.9649869851E-48
                       6.6666666667E-01  6.6666666667E-01  3.6492147508E-48
                       8.3333333334E-01  8.3333333334E-01  9.1230368771E-49
            znucl        6.00000

================================================================================


- Timing analysis has been suppressed with timopt=0



================================================================================

 Suggested references for the acknowledgment of ABINIT usage.

 The users of ABINIT have little formal obligations with respect to the ABINIT group
 (those specified in the GNU General Public License, http://www.gnu.org/copyleft/gpl.txt).
 However, it is common practice in the scientific literature,
 to acknowledge the efforts of people that have made the research possible.
 In this spirit, please find below suggested citations of work written by ABINIT developers,
 corresponding to implementations inside of ABINIT that you have used in the present run.
 Note also that it will be of great value to readers of publications presenting these results,
 to read papers enabling them to understand the theoretical formalism and details
 of the ABINIT implementation.
 For information on why they are suggested, see also http://www.abinit.org/about/?text=acknowledgments.
-
- [1] Implementation of the Projector Augmented-Wave Method in the ABINIT code.
- M. Torrent, F. Jollet, F. Bottin, G. Zerah, and X. Gonze Comput. Mat. Science 42, 337, (2008).
- Comment : PAW calculations. Strong suggestion to cite this paper.
-
- [2] Libxc: A library of exchange and correlation functionals for density functional theory.
- M.A.L. Marques, M.J.T. Oliveira, T. Burnus, Computer Physics Communications 183, 2227 (2012).
- Comment : to be cited when LibXC is used (negative value of ixc)
- Strong suggestion to cite this paper.
-
- [3] Recent developments in the ABINIT software package.
- Computer Phys. Comm. 205, 106 (2016).
- X.Gonze, F.Jollet, F.Abreu Araujo, D.Adams, B.Amadon, T.Applencourt,
- C.Audouze, J.-M.Beuken, J.Bieder, A.Bokhanchuk, E.Bousquet, F.Bruneval
- D.Caliste, M.Cote, F.Dahm, F.Da Pieve, M.Delaveau, M.Di Gennaro,
- B.Dorado, C.Espejo, G.Geneste, L.Genovese, A.Gerossier, M.Giantomassi,
- Y.Gillet, D.R.Hamann, L.He, G.Jomard, J.Laflamme Janssen, S.Le Roux,
- A.Levitt, A.Lherbier, F.Liu, I.Lukacevic, A.Martin, C.Martins,
- M.J.T.Oliveira, S.Ponce, Y.Pouillon, T.Rangel, G.-M.Rignanese,
- A.H.Romero, B.Rousseau, O.Rubel, A.A.Shukri, M.Stankovski, M.Torrent,
- M.J.Van Setten, B.Van Troeye, M.J.Verstraete, D.Waroquier, J.Wiktor,
- B.Xue, A.Zhou, J.W.Zwanziger.
- Comment : the fourth generic paper describing the ABINIT project.
- Note that a version of this paper, that is not formatted for Computer Phys. Comm. 
- is available at http://www.abinit.org/about/ABINIT16.pdf .
- The licence allows the authors to put it on the Web.
-
- [4] ABINIT : First-principles approach of materials and nanosystem properties.
- Computer Phys. Comm. 180, 2582-2615 (2009).
- X. Gonze, B. Amadon, P.-M. Anglade, J.-M. Beuken, F. Bottin, P. Boulanger, F. Bruneval,
- D. Caliste, R. Caracas, M. Cote, T. Deutsch, L. Genovese, Ph. Ghosez, M. Giantomassi
- S. Goedecker, D.R. Hamann, P. Hermet, F. Jollet, G. Jomard, S. Leroux, M. Mancini, S. Mazevet,
- M.J.T. Oliveira, G. Onida, Y. Pouillon, T. Rangel, G.-M. Rignanese, D. Sangalli, R. Shaltaf,
- M. Torrent, M.J. Verstraete, G. Zerah, J.W. Zwanziger
- Comment : the third generic paper describing the ABINIT project.
- Note that a version of this paper, that is not formatted for Computer Phys. Comm. 
- is available at http://www.abinit.org/about/ABINIT_CPC_v10.pdf .
- The licence allows the authors to put it on the Web.
-
- [5] A brief introduction to the ABINIT software package.
- Z. Kristallogr. 220, 558-562 (2005).
- X. Gonze, G.-M. Rignanese, M. Verstraete, J.-M. Beuken, Y. Pouillon, R. Caracas, F. Jollet,
- M. Torrent, G. Zerah, M. Mikami, Ph. Ghosez, M. Veithen, J.-Y. Raty, V. Olevano, F. Bruneval,
- L. Reining, R. Godby, G. Onida, D.R. Hamann, and D.C. Allan.
- Comment : the second generic paper describing the ABINIT project. Note that this paper
- should be cited especially if you are using the GW part of ABINIT, as several authors
- of this part are not in the list of authors of the first or third paper.
- The .pdf of the latter paper is available at http://www.abinit.org/about/zfk_0505-06_558-562.pdf.
- Note that it should not redistributed (Copyright by Oldenburg Wissenshaftverlag,
- the licence allows the authors to put it on the Web).
-
- Proc.   0 individual time (sec): cpu=        267.4  wall=        267.6

================================================================================

 Calculation completed.
.Delivered   2 WARNINGs and   0 COMMENTs to log file.
+Overall time at end (sec) : cpu=       1604.1  wall=       1605.5
